
     Program BANDS v.7.3 starts on 18Nov2024 at 12:45: 2 

     This program is part of the open-source Quantum ESPRESSO suite
     for quantum simulation of materials; please cite
         "P. Giannozzi et al., J. Phys.:Condens. Matter 21 395502 (2009);
         "P. Giannozzi et al., J. Phys.:Condens. Matter 29 465901 (2017);
         "P. Giannozzi et al., J. Chem. Phys. 152 154105 (2020);
          URL http://www.quantum-espresso.org", 
     in publications or presentations arising from this work. More details at
     http://www.quantum-espresso.org/quote

     Serial version
     6288 MiB available memory on the printing compute node when the environment starts


     Reading xml data from directory:

     ./tmp/allu.save/

     IMPORTANT: XC functional enforced from input :
     Exchange-correlation= PW
                           (   1   4   0   0   0   0   0)
     Any further DFT definition will be discarded
     Please, verify this is what you really want


     G-vector sticks info
     --------------------
     sticks:   dense  smooth     PW     G-vecs:    dense   smooth      PW
     Sum         313     313    109                 3839     3839     725

     Using Slab Decomposition

     Reading collected, re-writing distributed wavefunctions
     high-symmetry point:  0.0000 0.0000 0.0000   x coordinate   0.0000
     high-symmetry point:  0.0000 0.0000 1.0000   x coordinate   1.0000
     high-symmetry point: -0.5000 0.0000 1.0000   x coordinate   1.5000
     high-symmetry point: -0.5000-0.5000 0.5000   x coordinate   2.2071
     high-symmetry point:  0.0000 0.0000 0.0000   x coordinate   3.0731

     Plottable bands (eV) written to file allu.bands.dat.gnu
     Bands written to file allu.bands.dat

 **************************************************************************

                    xk=(   0.00000,   0.00000,   0.00000  )

     point group O_h (m-3m) 
     there are 10 classes
     the character table:

       E     8C3   3C2   6C4   6C2'  i     8S6   3s_h  6S4   6s_d 
A_1g   1.00  1.00  1.00  1.00  1.00  1.00  1.00  1.00  1.00  1.00
A_2g   1.00  1.00  1.00 -1.00 -1.00  1.00  1.00  1.00 -1.00 -1.00
E_g    2.00 -1.00  2.00  0.00  0.00  2.00 -1.00  2.00  0.00  0.00
T_1g   3.00  0.00 -1.00  1.00 -1.00  3.00  0.00 -1.00  1.00 -1.00
T_2g   3.00  0.00 -1.00 -1.00  1.00  3.00  0.00 -1.00 -1.00  1.00
A_1u   1.00  1.00  1.00  1.00  1.00 -1.00 -1.00 -1.00 -1.00 -1.00
A_2u   1.00  1.00  1.00 -1.00 -1.00 -1.00 -1.00 -1.00  1.00  1.00
E_u    2.00 -1.00  2.00  0.00  0.00 -2.00  1.00 -2.00  0.00  0.00
T_1u   3.00  0.00 -1.00  1.00 -1.00 -3.00  0.00  1.00 -1.00  1.00
T_2u   3.00  0.00 -1.00 -1.00  1.00 -3.00  0.00  1.00  1.00 -1.00

     the symmetry operations in each class and the name of the first element:

     E        1
                                                                 
     8C3     17   19   20   18   24   21   22   23
                                                                 
     3C2      2    4    3
                                                                 
     6C4      7    8   15   16   12   11
                                                                 
     6C2'     5    6   14   13   10    9
                                                                 
     i       25
                                                                 
     8S6     41   43   44   42   48   45   46   47
                                                                 
     3s_h    26   28   27
                                                                 
     6S4     31   32   39   40   36   35
                                                                 
     6s_d    29   30   38   37   34   33
                                                                 

     Band symmetry, O_h (m-3m)  point group:

     e(  1 -  1) =     -3.41217  eV     1   --> A_1g G_1   G_1+
     e(  2 -  4) =     20.19010  eV     3   --> T_2g G_25' G_5+
     e(  5 -  7) =     21.41253  eV     3   --> T_1u G_15  G_4-
     e(  8 -  8) =     24.24003  eV     1   --> A_2u G_2'  G_2-
     e(  9 - 10) =     26.79445  eV     2   --> E_g  G_12  G_3+

 **************************************************************************

 **************************************************************************

                    xk=(   0.00000,   0.00000,   0.02500  )

     point group C_4v (4mm) 
     there are  5 classes
     the character table:

       E     2C4   C2    2s_v  2s_d 
A_1    1.00  1.00  1.00  1.00  1.00
A_2    1.00  1.00  1.00 -1.00 -1.00
B_1    1.00 -1.00  1.00  1.00 -1.00
B_2    1.00 -1.00  1.00 -1.00  1.00
E      2.00  0.00 -2.00  0.00  0.00

     the symmetry operations in each class and the name of the first element:

     E        1
                                                                 
     2C4      3    4
                                                                 
     C2       2
                                                                 
     2s_v     5    6
                                                                 
     2s_d     7    8
                                                                 

     Band symmetry, C_4v (4mm)  point group:

     e(  1 -  1) =     -3.40654  eV     1   --> A_1  G_1 D_1   
     e(  2 -  3) =     20.08803  eV     2   --> E    G_5 D_5   
     e(  4 -  4) =     20.14540  eV     1   --> B_2  G_4 D_2'  
     e(  5 -  5) =     21.40038  eV     1   --> A_1  G_1 D_1   
     e(  6 -  7) =     21.52276  eV     2   --> E    G_5 D_5   
     e(  8 -  8) =     24.29595  eV     1   --> B_2  G_4 D_2'  
     e(  9 -  9) =     26.72013  eV     1   --> A_1  G_1 D_1   
     e( 10 - 10) =     26.79960  eV     1   --> B_1  G_3 D_2   

 **************************************************************************

 **************************************************************************

                    xk=(   0.00000,   0.00000,   0.05000  )

     Band symmetry, C_4v (4mm)  point group:

     e(  1 -  1) =     -3.38966  eV     1   --> A_1  G_1 D_1   
     e(  2 -  3) =     19.84949  eV     2   --> E    G_5 D_5   
     e(  4 -  4) =     20.01818  eV     1   --> B_2  G_4 D_2'  
     e(  5 -  5) =     21.36045  eV     1   --> A_1  G_1 D_1   
     e(  6 -  7) =     21.78575  eV     2   --> E    G_5 D_5   
     e(  8 -  8) =     24.45688  eV     1   --> B_2  G_4 D_2'  
     e(  9 -  9) =     26.50298  eV     1   --> A_1  G_1 D_1   
     e( 10 - 10) =     26.81504  eV     1   --> B_1  G_3 D_2   

 **************************************************************************

 **************************************************************************

                    xk=(   0.00000,   0.00000,   0.07500  )

     Band symmetry, C_4v (4mm)  point group:

     e(  1 -  1) =     -3.36154  eV     1   --> A_1  G_1 D_1   
     e(  2 -  3) =     19.55721  eV     2   --> E    G_5 D_5   
     e(  4 -  4) =     19.82498  eV     1   --> B_2  G_4 D_2'  
     e(  5 -  5) =     21.29433  eV     1   --> A_1  G_1 D_1   
     e(  6 -  7) =     22.11886  eV     2   --> E    G_5 D_5   
     e(  8 -  8) =     24.70623  eV     1   --> B_2  G_4 D_2'  
     e(  9 -  9) =     26.16074  eV     1   --> A_1  G_1 D_1   
     e( 10 - 10) =     26.84078  eV     1   --> B_1  G_3 D_2   

 **************************************************************************

 **************************************************************************

                    xk=(   0.00000,   0.00000,   0.10000  )

     Band symmetry, C_4v (4mm)  point group:

     e(  1 -  1) =     -3.32217  eV     1   --> A_1  G_1 D_1   
     e(  2 -  3) =     19.24655  eV     2   --> E    G_5 D_5   
     e(  4 -  4) =     19.58456  eV     1   --> B_2  G_4 D_2'  
     e(  5 -  5) =     21.20381  eV     1   --> A_1  G_1 D_1   
     e(  6 -  7) =     22.48471  eV     2   --> E    G_5 D_5   
     e(  8 -  8) =     25.02523  eV     1   --> B_2  G_4 D_2'  
     e(  9 -  9) =     25.71970  eV     1   --> A_1  G_1 D_1   
     e( 10 - 10) =     26.87678  eV     1   --> B_1  G_3 D_2   

 **************************************************************************

 **************************************************************************

                    xk=(   0.00000,   0.00000,   0.12500  )

     Band symmetry, C_4v (4mm)  point group:

     e(  1 -  1) =     -3.27157  eV     1   --> A_1  G_1 D_1   
     e(  2 -  3) =     18.93170  eV     2   --> E    G_5 D_5   
     e(  4 -  4) =     19.31304  eV     1   --> B_2  G_4 D_2'  
     e(  5 -  5) =     21.09165  eV     1   --> A_1  G_1 D_1   
     e(  6 -  7) =     22.87007  eV     2   --> E    G_5 D_5   
     e(  8 -  8) =     25.20708  eV     1   --> A_1  G_1 D_1   
     e(  9 -  9) =     25.39778  eV     1   --> B_2  G_4 D_2'  
     e( 10 - 10) =     26.92302  eV     1   --> B_1  G_3 D_2   

 **************************************************************************

 **************************************************************************

                    xk=(   0.00000,   0.00000,   0.15000  )

     Band symmetry, C_4v (4mm)  point group:

     e(  1 -  1) =     -3.20975  eV     1   --> A_1  G_1 D_1   
     e(  2 -  3) =     18.61868  eV     2   --> E    G_5 D_5   
     e(  4 -  4) =     19.02245  eV     1   --> B_2  G_4 D_2'  
     e(  5 -  5) =     20.96039  eV     1   --> A_1  G_1 D_1   
     e(  6 -  7) =     23.26856  eV     2   --> E    G_5 D_5   
     e(  8 -  8) =     24.64543  eV     1   --> A_1  G_1 D_1   
     e(  9 -  9) =     25.81182  eV     1   --> B_2  G_4 D_2'  
     e( 10 - 10) =     26.97946  eV     1   --> B_1  G_3 D_2   

 **************************************************************************

 **************************************************************************

                    xk=(   0.00000,   0.00000,   0.17500  )

     Band symmetry, C_4v (4mm)  point group:

     e(  1 -  1) =     -3.13672  eV     1   --> A_1  G_1 D_1   
     e(  2 -  3) =     18.31075  eV     2   --> E    G_5 D_5   
     e(  4 -  4) =     18.72132  eV     1   --> B_2  G_4 D_2'  
     e(  5 -  5) =     20.81267  eV     1   --> A_1  G_1 D_1   
     e(  6 -  7) =     23.67744  eV     2   --> E    G_5 D_5   
     e(  8 -  8) =     24.05132  eV     1   --> A_1  G_1 D_1   
     e(  9 -  9) =     26.25885  eV     1   --> B_2  G_4 D_2'  
     e( 10 - 10) =     27.04609  eV     1   --> B_1  G_3 D_2   

 **************************************************************************

 **************************************************************************

                    xk=(   0.00000,   0.00000,   0.20000  )

     Band symmetry, C_4v (4mm)  point group:

     e(  1 -  1) =     -3.05251  eV     1   --> A_1  G_1 D_1   
     e(  2 -  3) =     18.00890  eV     2   --> E    G_5 D_5   
     e(  4 -  4) =     18.41550  eV     1   --> B_2  G_4 D_2'  
     e(  5 -  5) =     20.65097  eV     1   --> A_1  G_1 D_1   
     e(  6 -  6) =     23.43636  eV     1   --> A_1  G_1 D_1   
     e(  7 -  8) =     24.09321  eV     2   --> E    G_5 D_5   
     e(  9 -  9) =     26.73297  eV     1   --> B_2  G_4 D_2'  
     e( 10 - 10) =     27.12283  eV     1   --> B_1  G_3 D_2   

 **************************************************************************

 **************************************************************************

                    xk=(   0.00000,   0.00000,   0.22500  )

     Band symmetry, C_4v (4mm)  point group:

     e(  1 -  1) =     -2.95713  eV     1   --> A_1  G_1 D_1   
     e(  2 -  3) =     17.71442  eV     2   --> E    G_5 D_5   
     e(  4 -  4) =     18.10912  eV     1   --> B_2  G_4 D_2'  
     e(  5 -  5) =     20.47757  eV     1   --> A_1  G_1 D_1   
     e(  6 -  6) =     22.80872  eV     1   --> A_1  G_1 D_1   
     e(  7 -  8) =     24.51491  eV     2   --> E    G_5 D_5   
     e(  9 -  9) =     27.20963  eV     1   --> B_1  G_3 D_2   
     e( 10 - 10) =     27.23006  eV     1   --> B_2  G_4 D_2'  

 **************************************************************************

 **************************************************************************

                    xk=(   0.00000,   0.00000,   0.25000  )

     Band symmetry, C_4v (4mm)  point group:

     e(  1 -  1) =     -2.85059  eV     1   --> A_1  G_1 D_1   
     e(  2 -  3) =     17.42791  eV     2   --> E    G_5 D_5   
     e(  4 -  4) =     17.80503  eV     1   --> B_2  G_4 D_2'  
     e(  5 -  5) =     20.29430  eV     1   --> A_1  G_1 D_1   
     e(  6 -  6) =     22.17442  eV     1   --> A_1  G_1 D_1   
     e(  7 -  8) =     24.94114  eV     2   --> E    G_5 D_5   
     e(  9 -  9) =     27.30641  eV     1   --> B_1  G_3 D_2   
     e( 10 - 10) =     27.74723  eV     1   --> B_2  G_4 D_2'  

 **************************************************************************

 **************************************************************************

                    xk=(   0.00000,   0.00000,   0.27500  )

     Band symmetry, C_4v (4mm)  point group:

     e(  1 -  1) =     -2.73294  eV     1   --> A_1  G_1 D_1   
     e(  2 -  3) =     17.14995  eV     2   --> E    G_5 D_5   
     e(  4 -  4) =     17.50532  eV     1   --> B_2  G_4 D_2'  
     e(  5 -  5) =     20.10280  eV     1   --> A_1  G_1 D_1   
     e(  6 -  6) =     21.53877  eV     1   --> A_1  G_1 D_1   
     e(  7 -  8) =     25.37081  eV     2   --> E    G_5 D_5   
     e(  9 -  9) =     27.41311  eV     1   --> B_1  G_3 D_2   
     e( 10 - 10) =     28.28242  eV     1   --> B_2  G_4 D_2'  

 **************************************************************************

 **************************************************************************

                    xk=(   0.00000,   0.00000,   0.30000  )

     Band symmetry, C_4v (4mm)  point group:

     e(  1 -  1) =     -2.60419  eV     1   --> A_1  G_1 D_1   
     e(  2 -  3) =     16.88050  eV     2   --> E    G_5 D_5   
     e(  4 -  4) =     17.21146  eV     1   --> B_2  G_4 D_2'  
     e(  5 -  5) =     19.90017  eV     1   --> A_1  G_1 D_1   
     e(  6 -  6) =     20.90729  eV     1   --> A_1  G_1 D_1   
     e(  7 -  8) =     25.80216  eV     2   --> E    G_5 D_5   
     e(  9 -  9) =     27.52963  eV     1   --> B_1  G_3 D_2   
     e( 10 - 10) =     28.83409  eV     1   --> B_2  G_4 D_2'  

 **************************************************************************

 **************************************************************************

                    xk=(   0.00000,   0.00000,   0.32500  )

     Band symmetry, C_4v (4mm)  point group:

     e(  1 -  1) =     -2.46437  eV     1   --> A_1  G_1 D_1   
     e(  2 -  3) =     16.61995  eV     2   --> E    G_5 D_5   
     e(  4 -  4) =     16.92457  eV     1   --> B_2  G_4 D_2'  
     e(  5 -  5) =     19.67730  eV     1   --> A_1  G_1 D_1   
     e(  6 -  6) =     20.29430  eV     1   --> A_1  G_1 D_1   
     e(  7 -  8) =     26.23406  eV     2   --> E    G_5 D_5   
     e(  9 -  9) =     27.65584  eV     1   --> B_1  G_3 D_2   
     e( 10 - 10) =     29.40112  eV     1   --> B_2  G_4 D_2'  

 **************************************************************************

 **************************************************************************

                    xk=(   0.00000,   0.00000,   0.35000  )

     Band symmetry, C_4v (4mm)  point group:

     e(  1 -  1) =     -2.31352  eV     1   --> A_1  G_1 D_1   
     e(  2 -  3) =     16.36845  eV     2   --> E    G_5 D_5   
     e(  4 -  4) =     16.64548  eV     1   --> B_2  G_4 D_2'  
     e(  5 -  5) =     19.37355  eV     1   --> A_1  G_1 D_1   
     e(  6 -  6) =     19.76336  eV     1   --> A_1  G_1 D_1   
     e(  7 -  8) =     26.66511  eV     2   --> E    G_5 D_5   
     e(  9 -  9) =     27.79163  eV     1   --> B_1  G_3 D_2   
     e( 10 - 10) =     29.98266  eV     1   --> B_2  G_4 D_2'  

 **************************************************************************

 **************************************************************************

                    xk=(   0.00000,   0.00000,   0.37500  )

     Band symmetry, C_4v (4mm)  point group:

     e(  1 -  1) =     -2.15168  eV     1   --> A_1  G_1 D_1   
     e(  2 -  3) =     16.12612  eV     2   --> E    G_5 D_5   
     e(  4 -  4) =     16.37483  eV     1   --> B_2  G_4 D_2'  
     e(  5 -  5) =     18.87083  eV     1   --> A_1  G_1 D_1   
     e(  6 -  6) =     19.43511  eV     1   --> A_1  G_1 D_1   
     e(  7 -  8) =     27.09381  eV     2   --> E    G_5 D_5   
     e(  9 -  9) =     27.93684  eV     1   --> B_1  G_3 D_2   
     e( 10 - 10) =     30.57804  eV     1   --> B_2  G_4 D_2'  

 **************************************************************************

 **************************************************************************

                    xk=(   0.00000,   0.00000,   0.40000  )

     Band symmetry, C_4v (4mm)  point group:

     e(  1 -  1) =     -1.97887  eV     1   --> A_1  G_1 D_1   
     e(  2 -  3) =     15.89327  eV     2   --> E    G_5 D_5   
     e(  4 -  4) =     16.11313  eV     1   --> B_2  G_4 D_2'  
     e(  5 -  5) =     18.27388  eV     1   --> A_1  G_1 D_1   
     e(  6 -  6) =     19.20720  eV     1   --> A_1  G_1 D_1   
     e(  7 -  8) =     27.51917  eV     2   --> E    G_5 D_5   
     e(  9 -  9) =     28.09130  eV     1   --> B_1  G_3 D_2   
     e( 10 - 10) =     31.18673  eV     1   --> B_2  G_4 D_2'  

 **************************************************************************

 **************************************************************************

                    xk=(   0.00000,   0.00000,   0.42500  )

     Band symmetry, C_4v (4mm)  point group:

     e(  1 -  1) =     -1.79515  eV     1   --> A_1  G_1 D_1   
     e(  2 -  3) =     15.66952  eV     2   --> E    G_5 D_5   
     e(  4 -  4) =     15.86075  eV     1   --> B_2  G_4 D_2'  
     e(  5 -  5) =     17.66060  eV     1   --> A_1  G_1 D_1   
     e(  6 -  6) =     19.00304  eV     1   --> A_1  G_1 D_1   
     e(  7 -  8) =     27.93858  eV     2   --> E    G_5 D_5   
     e(  9 -  9) =     28.25481  eV     1   --> B_1  G_3 D_2   
     e( 10 - 10) =     31.80829  eV     1   --> B_2  G_4 D_2'  

 **************************************************************************

 **************************************************************************

                    xk=(   0.00000,   0.00000,   0.45000  )

     Band symmetry, C_4v (4mm)  point group:

     e(  1 -  1) =     -1.60056  eV     1   --> A_1  G_1 D_1   
     e(  2 -  3) =     15.45515  eV     2   --> E    G_5 D_5   
     e(  4 -  4) =     15.61801  eV     1   --> B_2  G_4 D_2'  
     e(  5 -  5) =     17.04671  eV     1   --> A_1  G_1 D_1   
     e(  6 -  6) =     18.80872  eV     1   --> A_1  G_1 D_1   
     e(  7 -  8) =     28.35110  eV     2   --> E    G_5 D_5   
     e(  9 -  9) =     28.42714  eV     1   --> B_1  G_3 D_2   
     e( 10 - 10) =     32.44239  eV     1   --> B_2  G_4 D_2'  

 **************************************************************************

 **************************************************************************

                    xk=(   0.00000,   0.00000,   0.47500  )

     Band symmetry, C_4v (4mm)  point group:

     e(  1 -  1) =     -1.39515  eV     1   --> A_1  G_1 D_1   
     e(  2 -  3) =     15.25021  eV     2   --> E    G_5 D_5   
     e(  4 -  4) =     15.38515  eV     1   --> B_2  G_4 D_2'  
     e(  5 -  5) =     16.43654  eV     1   --> A_1  G_1 D_1   
     e(  6 -  6) =     18.62126  eV     1   --> A_1  G_1 D_1   
     e(  7 -  7) =     28.60801  eV     1   --> B_1  G_3 D_2   
     e(  8 -  9) =     28.75531  eV     2   --> E    G_5 D_5   
     e( 10 - 10) =     33.08872  eV     1   --> B_2  G_4 D_2'  

 **************************************************************************

 **************************************************************************

                    xk=(   0.00000,   0.00000,   0.50000  )

     Band symmetry, C_4v (4mm)  point group:

     e(  1 -  1) =     -1.17897  eV     1   --> A_1  G_1 D_1   
     e(  2 -  3) =     15.05473  eV     2   --> E    G_5 D_5   
     e(  4 -  4) =     15.16238  eV     1   --> B_2  G_4 D_2'  
     e(  5 -  5) =     15.83188  eV     1   --> A_1  G_1 D_1   
     e(  6 -  6) =     18.44003  eV     1   --> A_1  G_1 D_1   
     e(  7 -  7) =     28.79709  eV     1   --> B_1  G_3 D_2   
     e(  8 -  9) =     29.14996  eV     2   --> E    G_5 D_5   
     e( 10 - 10) =     33.74703  eV     1   --> B_2  G_4 D_2'  

 **************************************************************************

 **************************************************************************

                    xk=(   0.00000,   0.00000,   0.52500  )

     Band symmetry, C_4v (4mm)  point group:

     e(  1 -  1) =     -0.95207  eV     1   --> A_1  G_1 D_1   
     e(  2 -  3) =     14.86875  eV     2   --> E    G_5 D_5   
     e(  4 -  4) =     14.94987  eV     1   --> B_2  G_4 D_2'  
     e(  5 -  5) =     15.23368  eV     1   --> A_1  G_1 D_1   
     e(  6 -  6) =     18.26510  eV     1   --> A_1  G_1 D_1   
     e(  7 -  7) =     28.99403  eV     1   --> B_1  G_3 D_2   
     e(  8 -  9) =     29.53400  eV     2   --> E    G_5 D_5   
     e( 10 - 10) =     34.30209  eV     1   --> A_1  G_1 D_1   

 **************************************************************************

 **************************************************************************

                    xk=(   0.00000,   0.00000,   0.55000  )

     Band symmetry, C_4v (4mm)  point group:

     e(  1 -  1) =     -0.71452  eV     1   --> A_1  G_1 D_1   
     e(  2 -  2) =     14.64258  eV     1   --> A_1  G_1 D_1   
     e(  3 -  4) =     14.69227  eV     2   --> E    G_5 D_5   
     e(  5 -  5) =     14.74776  eV     1   --> B_2  G_4 D_2'  
     e(  6 -  6) =     18.09674  eV     1   --> A_1  G_1 D_1   
     e(  7 -  7) =     29.19836  eV     1   --> B_1  G_3 D_2   
     e(  8 -  9) =     29.90663  eV     2   --> E    G_5 D_5   
     e( 10 - 10) =     34.66643  eV     1   --> A_1  G_1 D_1   

 **************************************************************************

 **************************************************************************

                    xk=(   0.00000,   0.00000,   0.57500  )

     Band symmetry, C_4v (4mm)  point group:

     e(  1 -  1) =     -0.46639  eV     1   --> A_1  G_1 D_1   
     e(  2 -  2) =     14.05906  eV     1   --> A_1  G_1 D_1   
     e(  3 -  4) =     14.52529  eV     2   --> E    G_5 D_5   
     e(  5 -  5) =     14.55615  eV     1   --> B_2  G_4 D_2'  
     e(  6 -  6) =     17.93496  eV     1   --> A_1  G_1 D_1   
     e(  7 -  7) =     29.40958  eV     1   --> B_1  G_3 D_2   
     e(  8 -  9) =     30.26710  eV     2   --> E    G_5 D_5   
     e( 10 - 10) =     35.03659  eV     1   --> A_1  G_1 D_1   

 **************************************************************************

 **************************************************************************

                    xk=(   0.00000,   0.00000,   0.60000  )

     Band symmetry, C_4v (4mm)  point group:

     e(  1 -  1) =     -0.20774  eV     1   --> A_1  G_1 D_1   
     e(  2 -  2) =     13.48345  eV     1   --> A_1  G_1 D_1   
     e(  3 -  4) =     14.36791  eV     2   --> E    G_5 D_5   
     e(  5 -  5) =     14.37514  eV     1   --> B_2  G_4 D_2'  
     e(  6 -  6) =     17.78085  eV     1   --> A_1  G_1 D_1   
     e(  7 -  7) =     29.62705  eV     1   --> B_1  G_3 D_2   
     e(  8 -  9) =     30.61563  eV     2   --> E    G_5 D_5   
     e( 10 - 10) =     35.41249  eV     1   --> A_1  G_1 D_1   

 **************************************************************************

 **************************************************************************

                    xk=(   0.00000,   0.00000,   0.62500  )

     Band symmetry, C_4v (4mm)  point group:

     e(  1 -  1) =      0.06132  eV     1   --> A_1  G_1 D_1   
     e(  2 -  2) =     12.91592  eV     1   --> A_1  G_1 D_1   
     e(  3 -  3) =     14.20482  eV     1   --> B_2  G_4 D_2'  
     e(  4 -  5) =     14.22002  eV     2   --> E    G_5 D_5   
     e(  6 -  6) =     17.63436  eV     1   --> A_1  G_1 D_1   
     e(  7 -  7) =     29.85004  eV     1   --> B_1  G_3 D_2   
     e(  8 -  9) =     30.95164  eV     2   --> E    G_5 D_5   
     e( 10 - 10) =     35.79348  eV     1   --> A_1  G_1 D_1   

 **************************************************************************

 **************************************************************************

                    xk=(   0.00000,   0.00000,   0.65000  )

     Band symmetry, C_4v (4mm)  point group:

     e(  1 -  1) =      0.34071  eV     1   --> A_1  G_1 D_1   
     e(  2 -  2) =     12.35683  eV     1   --> A_1  G_1 D_1   
     e(  3 -  3) =     14.04526  eV     1   --> B_2  G_4 D_2'  
     e(  4 -  5) =     14.08168  eV     2   --> E    G_5 D_5   
     e(  6 -  6) =     17.49586  eV     1   --> A_1  G_1 D_1   
     e(  7 -  7) =     30.07766  eV     1   --> B_1  G_3 D_2   
     e(  8 -  9) =     31.27525  eV     2   --> E    G_5 D_5   
     e( 10 - 10) =     36.17926  eV     1   --> A_1  G_1 D_1   

 **************************************************************************

 **************************************************************************

                    xk=(   0.00000,   0.00000,   0.67500  )

     Band symmetry, C_4v (4mm)  point group:

     e(  1 -  1) =      0.63032  eV     1   --> A_1  G_1 D_1   
     e(  2 -  2) =     11.80645  eV     1   --> A_1  G_1 D_1   
     e(  3 -  3) =     13.89651  eV     1   --> B_2  G_4 D_2'  
     e(  4 -  5) =     13.95289  eV     2   --> E    G_5 D_5   
     e(  6 -  6) =     17.36566  eV     1   --> A_1  G_1 D_1   
     e(  7 -  7) =     30.30882  eV     1   --> B_1  G_3 D_2   
     e(  8 -  9) =     31.58645  eV     2   --> E    G_5 D_5   
     e( 10 - 10) =     36.56938  eV     1   --> A_1  G_1 D_1   

 **************************************************************************

 **************************************************************************

                    xk=(   0.00000,   0.00000,   0.70000  )

     Band symmetry, C_4v (4mm)  point group:

     e(  1 -  1) =      0.93000  eV     1   --> A_1  G_1 D_1   
     e(  2 -  2) =     11.26500  eV     1   --> A_1  G_1 D_1   
     e(  3 -  3) =     13.75862  eV     1   --> B_2  G_4 D_2'  
     e(  4 -  5) =     13.83366  eV     2   --> E    G_5 D_5   
     e(  6 -  6) =     17.24405  eV     1   --> A_1  G_1 D_1   
     e(  7 -  7) =     30.54225  eV     1   --> B_1  G_3 D_2   
     e(  8 -  9) =     31.88514  eV     2   --> E    G_5 D_5   
     e( 10 - 10) =     36.96329  eV     1   --> A_1  G_1 D_1   

 **************************************************************************

 **************************************************************************

                    xk=(   0.00000,   0.00000,   0.72500  )

     Band symmetry, C_4v (4mm)  point group:

     e(  1 -  1) =      1.23960  eV     1   --> A_1  G_1 D_1   
     e(  2 -  2) =     10.73273  eV     1   --> A_1  G_1 D_1   
     e(  3 -  3) =     13.63166  eV     1   --> B_2  G_4 D_2'  
     e(  4 -  5) =     13.72417  eV     2   --> E    G_5 D_5   
     e(  6 -  6) =     17.13128  eV     1   --> A_1  G_1 D_1   
     e(  7 -  7) =     30.77638  eV     1   --> B_1  G_3 D_2   
     e(  8 -  9) =     32.17162  eV     2   --> E    G_5 D_5   
     e( 10 - 10) =     37.36037  eV     1   --> A_1  G_1 D_1   

 **************************************************************************

 **************************************************************************

                    xk=(   0.00000,   0.00000,   0.75000  )

     Band symmetry, C_4v (4mm)  point group:

     e(  1 -  1) =      1.55891  eV     1   --> A_1  G_1 D_1   
     e(  2 -  2) =     10.20994  eV     1   --> A_1  G_1 D_1   
     e(  3 -  3) =     13.51562  eV     1   --> B_2  G_4 D_2'  
     e(  4 -  5) =     13.62403  eV     2   --> E    G_5 D_5   
     e(  6 -  6) =     17.02757  eV     1   --> A_1  G_1 D_1   
     e(  7 -  7) =     31.00930  eV     1   --> B_1  G_3 D_2   
     e(  8 -  9) =     32.44411  eV     2   --> E    G_5 D_5   
     e( 10 - 10) =     37.75984  eV     1   --> A_1  G_1 D_1   

 **************************************************************************

 **************************************************************************

                    xk=(   0.00000,   0.00000,   0.77500  )

     Band symmetry, C_4v (4mm)  point group:

     e(  1 -  1) =      1.88765  eV     1   --> A_1  G_1 D_1   
     e(  2 -  2) =      9.69699  eV     1   --> A_1  G_1 D_1   
     e(  3 -  3) =     13.41054  eV     1   --> B_2  G_4 D_2'  
     e(  4 -  5) =     13.53348  eV     2   --> E    G_5 D_5   
     e(  6 -  6) =     16.93311  eV     1   --> A_1  G_1 D_1   
     e(  7 -  7) =     31.23873  eV     1   --> B_1  G_3 D_2   
     e(  8 -  9) =     32.70239  eV     2   --> E    G_5 D_5   
     e( 10 - 10) =     38.16079  eV     1   --> A_1  G_1 D_1   

 **************************************************************************

 **************************************************************************

                    xk=(   0.00000,   0.00000,   0.80000  )

     Band symmetry, C_4v (4mm)  point group:

     e(  1 -  1) =      2.22542  eV     1   --> A_1  G_1 D_1   
     e(  2 -  2) =      9.19424  eV     1   --> A_1  G_1 D_1   
     e(  3 -  3) =     13.31647  eV     1   --> B_2  G_4 D_2'  
     e(  4 -  5) =     13.45242  eV     2   --> E    G_5 D_5   
     e(  6 -  6) =     16.84814  eV     1   --> A_1  G_1 D_1   
     e(  7 -  7) =     31.46191  eV     1   --> B_1  G_3 D_2   
     e(  8 -  9) =     32.94491  eV     2   --> E    G_5 D_5   
     e( 10 - 10) =     38.56204  eV     1   --> A_1  G_1 D_1   

 **************************************************************************

 **************************************************************************

                    xk=(   0.00000,   0.00000,   0.82500  )

     Band symmetry, C_4v (4mm)  point group:

     e(  1 -  1) =      2.57167  eV     1   --> A_1  G_1 D_1   
     e(  2 -  2) =      8.70235  eV     1   --> A_1  G_1 D_1   
     e(  3 -  3) =     13.23341  eV     1   --> B_2  G_4 D_2'  
     e(  4 -  5) =     13.38091  eV     2   --> E    G_5 D_5   
     e(  6 -  6) =     16.77280  eV     1   --> A_1  G_1 D_1   
     e(  7 -  7) =     31.67552  eV     1   --> B_1  G_3 D_2   
     e(  8 -  9) =     33.16991  eV     2   --> E    G_5 D_5   
     e( 10 - 10) =     38.96217  eV     1   --> A_1  G_1 D_1   

 **************************************************************************

 **************************************************************************

                    xk=(   0.00000,   0.00000,   0.85000  )

     Band symmetry, C_4v (4mm)  point group:

     e(  1 -  1) =      2.92548  eV     1   --> A_1  G_1 D_1   
     e(  2 -  2) =      8.22225  eV     1   --> A_1  G_1 D_1   
     e(  3 -  3) =     13.16139  eV     1   --> B_2  G_4 D_2'  
     e(  4 -  5) =     13.31898  eV     2   --> E    G_5 D_5   
     e(  6 -  6) =     16.70717  eV     1   --> A_1  G_1 D_1   
     e(  7 -  7) =     31.87569  eV     1   --> B_1  G_3 D_2   
     e(  8 -  9) =     33.37505  eV     2   --> E    G_5 D_5   
     e( 10 - 10) =     39.35932  eV     1   --> A_1  G_1 D_1   

 **************************************************************************

 **************************************************************************

                    xk=(   0.00000,   0.00000,   0.87500  )

     Band symmetry, C_4v (4mm)  point group:

     e(  1 -  1) =      3.28537  eV     1   --> A_1  G_1 D_1   
     e(  2 -  2) =      7.75546  eV     1   --> A_1  G_1 D_1   
     e(  3 -  3) =     13.10043  eV     1   --> B_2  G_4 D_2'  
     e(  4 -  5) =     13.26654  eV     2   --> E    G_5 D_5   
     e(  6 -  6) =     16.65149  eV     1   --> A_1  G_1 D_1   
     e(  7 -  7) =     32.05794  eV     1   --> B_1  G_3 D_2   
     e(  8 -  9) =     33.55727  eV     2   --> E    G_5 D_5   
     e( 10 - 10) =     39.75116  eV     1   --> A_1  G_1 D_1   

 **************************************************************************

 **************************************************************************

                    xk=(   0.00000,   0.00000,   0.90000  )

     Band symmetry, C_4v (4mm)  point group:

     e(  1 -  1) =      3.64850  eV     1   --> A_1  G_1 D_1   
     e(  2 -  2) =      7.30484  eV     1   --> A_1  G_1 D_1   
     e(  3 -  3) =     13.05054  eV     1   --> B_2  G_4 D_2'  
     e(  4 -  5) =     13.22363  eV     2   --> E    G_5 D_5   
     e(  6 -  6) =     16.60580  eV     1   --> A_1  G_1 D_1   
     e(  7 -  7) =     32.21732  eV     1   --> B_1  G_3 D_2   
     e(  8 -  9) =     33.71332  eV     2   --> E    G_5 D_5   
     e( 10 - 10) =     40.13451  eV     1   --> A_1  G_1 D_1   

 **************************************************************************

 **************************************************************************

                    xk=(   0.00000,   0.00000,   0.92500  )

     Band symmetry, C_4v (4mm)  point group:

     e(  1 -  1) =      4.00902  eV     1   --> A_1  G_1 D_1   
     e(  2 -  2) =      6.87625  eV     1   --> A_1  G_1 D_1   
     e(  3 -  3) =     13.01172  eV     1   --> B_2  G_4 D_2'  
     e(  4 -  5) =     13.19027  eV     2   --> E    G_5 D_5   
     e(  6 -  6) =     16.57018  eV     1   --> A_1  G_1 D_1   
     e(  7 -  7) =     32.34865  eV     1   --> B_1  G_3 D_2   
     e(  8 -  9) =     33.83971  eV     2   --> E    G_5 D_5   
     e( 10 - 10) =     40.50459  eV     1   -->   ?

 **************************************************************************

 **************************************************************************

                    xk=(   0.00000,   0.00000,   0.95000  )

     Band symmetry, C_4v (4mm)  point group:

     e(  1 -  1) =      4.35276  eV     1   --> A_1  G_1 D_1   
     e(  2 -  2) =      6.48389  eV     1   --> A_1  G_1 D_1   
     e(  3 -  3) =     12.98399  eV     1   --> B_2  G_4 D_2'  
     e(  4 -  5) =     13.16644  eV     2   --> E    G_5 D_5   
     e(  6 -  6) =     16.54470  eV     1   --> A_1  G_1 D_1   
     e(  7 -  7) =     32.44691  eV     1   --> B_1  G_3 D_2   
     e(  8 -  9) =     33.93300  eV     2   --> E    G_5 D_5   
     e( 10 - 10) =     40.39706  eV     1   --> B_1  G_3 D_2   

 **************************************************************************

 **************************************************************************

                    xk=(   0.00000,   0.00000,   0.97500  )

     Band symmetry, C_4v (4mm)  point group:

     e(  1 -  1) =      4.64000  eV     1   --> A_1  G_1 D_1   
     e(  2 -  2) =      6.16747  eV     1   --> A_1  G_1 D_1   
     e(  3 -  3) =     12.96735  eV     1   --> B_2  G_4 D_2'  
     e(  4 -  5) =     13.15214  eV     2   --> E    G_5 D_5   
     e(  6 -  6) =     16.52939  eV     1   --> A_1  G_1 D_1   
     e(  7 -  7) =     32.50781  eV     1   --> B_1  G_3 D_2   
     e(  8 -  9) =     33.99029  eV     2   --> E    G_5 D_5   
     e( 10 - 10) =     40.30326  eV     1   --> B_1  G_3 D_2   

 **************************************************************************

 **************************************************************************

                    xk=(   0.00000,   0.00000,   1.00000  )

     point group D_4h(4/mmm)
     there are 10 classes
     the character table:

       E     2C4   C2    2C2'  2C2'' i     2S4   s_h   2s_v  2s_d 
A_1g   1.00  1.00  1.00  1.00  1.00  1.00  1.00  1.00  1.00  1.00
A_2g   1.00  1.00  1.00 -1.00 -1.00  1.00  1.00  1.00 -1.00 -1.00
B_1g   1.00 -1.00  1.00  1.00 -1.00  1.00 -1.00  1.00  1.00 -1.00
B_2g   1.00 -1.00  1.00 -1.00  1.00  1.00 -1.00  1.00 -1.00  1.00
E_g    2.00  0.00 -2.00  0.00  0.00  2.00  0.00 -2.00  0.00  0.00
A_1u   1.00  1.00  1.00  1.00  1.00 -1.00 -1.00 -1.00 -1.00 -1.00
A_2u   1.00  1.00  1.00 -1.00 -1.00 -1.00 -1.00 -1.00  1.00  1.00
B_1u   1.00 -1.00  1.00  1.00 -1.00 -1.00  1.00 -1.00 -1.00  1.00
B_2u   1.00 -1.00  1.00 -1.00  1.00 -1.00  1.00 -1.00  1.00 -1.00
E_u    2.00  0.00 -2.00  0.00  0.00 -2.00  0.00  2.00  0.00  0.00

     the symmetry operations in each class and the name of the first element:

     E        1
                                                                 
     2C4      7    8
                                                                 
     C2       2
                                                                 
     2C2'     3    4
                                                                 
     2C2''    5    6
                                                                 
     i        9
                                                                 
     2S4     15   16
                                                                 
     s_h     10
                                                                 
     2s_v    11   12
                                                                 
     2s_d    13   14
                                                                 

     Band symmetry, D_4h(4/mmm) point group:

     e(  1 -  1) =      4.76704  eV     1   --> A_2u X_4' M_4' 
     e(  2 -  2) =      6.03070  eV     1   --> A_1g X_1  M_1  
     e(  3 -  3) =     12.96180  eV     1   --> B_2g X_3  M_3  
     e(  4 -  5) =     13.14737  eV     2   --> E_u  X_5' M_5' 
     e(  6 -  6) =     16.52428  eV     1   --> A_1g X_1  M_1  
     e(  7 -  7) =     32.52846  eV     1   --> B_1g X_2  M_2  
     e(  8 -  9) =     34.00962  eV     2   --> E_g  X_5  M_5  
     e( 10 - 10) =     40.27165  eV     1   --> B_2u X_3' M_3' 

 **************************************************************************

 **************************************************************************

                    xk=(  -0.01250,   0.00000,   1.00000  )

     point group C_2v (mm2) 
     there are  4 classes
     the character table:

       E     C2    s_v   s_v' 
A_1    1.00  1.00  1.00  1.00
A_2    1.00  1.00 -1.00 -1.00
B_1    1.00 -1.00  1.00 -1.00
B_2    1.00 -1.00 -1.00  1.00

     the symmetry operations in each class and the name of the first element:

     E        1
                                                                 
     C2       2
                                                                 
     s_v      4
                                                                 
     s_v'     3
                                                                 

     Band symmetry, C_2v (mm2)  point group:

     e(  1 -  1) =      4.76833  eV     1   --> B_1  D_3  S_3  
     e(  2 -  2) =      6.03207  eV     1   --> A_1  D_1  S_1  
     e(  3 -  3) =     12.82848  eV     1   --> B_2  D_4  S_4  
     e(  4 -  4) =     13.13596  eV     1   --> A_1  D_1  S_1  
     e(  5 -  5) =     13.28327  eV     1   --> B_2  D_4  S_4  
     e(  6 -  6) =     16.53776  eV     1   --> A_1  D_1  S_1  
     e(  7 -  7) =     32.52111  eV     1   --> A_1  D_1  S_1  
     e(  8 -  8) =     33.99162  eV     1   --> B_1  D_3  S_3  
     e(  9 -  9) =     34.00989  eV     1   --> A_2  D_2  S_2  
     e( 10 - 10) =     40.28048  eV     1   --> B_1  D_3  S_3  

 **************************************************************************

 **************************************************************************

                    xk=(  -0.02500,   0.00000,   1.00000  )

     Band symmetry, C_2v (mm2)  point group:

     e(  1 -  1) =      4.77219  eV     1   --> B_1  D_3  S_3  
     e(  2 -  2) =      6.03618  eV     1   --> A_1  D_1  S_1  
     e(  3 -  3) =     12.63430  eV     1   --> B_2  D_4  S_4  
     e(  4 -  4) =     13.10225  eV     1   --> A_1  D_1  S_1  
     e(  5 -  5) =     13.48520  eV     1   --> B_2  D_4  S_4  
     e(  6 -  6) =     16.57764  eV     1   --> A_1  D_1  S_1  
     e(  7 -  7) =     32.49911  eV     1   --> A_1  D_1  S_1  
     e(  8 -  8) =     33.93816  eV     1   --> B_1  D_3  S_3  
     e(  9 -  9) =     34.01071  eV     1   --> A_2  D_2  S_2  
     e( 10 - 10) =     40.30625  eV     1   --> B_1  D_3  S_3  

 **************************************************************************

 **************************************************************************

                    xk=(  -0.03750,  -0.00000,   1.00000  )

     Band symmetry, C_2v (mm2)  point group:

     e(  1 -  1) =      4.77863  eV     1   --> B_1  D_3  S_3  
     e(  2 -  2) =      6.04303  eV     1   --> A_1  D_1  S_1  
     e(  3 -  3) =     12.43653  eV     1   --> B_2  D_4  S_4  
     e(  4 -  4) =     13.04776  eV     1   --> A_1  D_1  S_1  
     e(  5 -  5) =     13.69588  eV     1   --> B_2  D_4  S_4  
     e(  6 -  6) =     16.64243  eV     1   --> A_1  D_1  S_1  
     e(  7 -  7) =     32.46254  eV     1   --> A_1  D_1  S_1  
     e(  8 -  8) =     33.85074  eV     1   --> B_1  D_3  S_3  
     e(  9 -  9) =     34.01207  eV     1   --> A_2  D_2  S_2  
     e( 10 - 10) =     40.34691  eV     1   --> B_1  D_3  S_3  

 **************************************************************************

 **************************************************************************

                    xk=(  -0.05000,  -0.00000,   1.00000  )

     Band symmetry, C_2v (mm2)  point group:

     e(  1 -  1) =      4.78765  eV     1   --> B_1  D_3  S_3  
     e(  2 -  2) =      6.05261  eV     1   --> A_1  D_1  S_1  
     e(  3 -  3) =     12.23968  eV     1   --> B_2  D_4  S_4  
     e(  4 -  4) =     12.97470  eV     1   --> A_1  D_1  S_1  
     e(  5 -  5) =     13.91079  eV     1   --> B_2  D_4  S_4  
     e(  6 -  6) =     16.72992  eV     1   --> A_1  D_1  S_1  
     e(  7 -  7) =     32.41152  eV     1   --> A_1  D_1  S_1  
     e(  8 -  8) =     33.73166  eV     1   --> B_1  D_3  S_3  
     e(  9 -  9) =     34.01397  eV     1   --> A_2  D_2  S_2  
     e( 10 - 10) =     40.39938  eV     1   --> B_1  D_3  S_3  

 **************************************************************************

 **************************************************************************

                    xk=(  -0.06250,   0.00000,   1.00000  )

     Band symmetry, C_2v (mm2)  point group:

     e(  1 -  1) =      4.79925  eV     1   --> B_1  D_3  S_3  
     e(  2 -  2) =      6.06493  eV     1   --> A_1  D_1  S_1  
     e(  3 -  3) =     12.04475  eV     1   --> B_2  D_4  S_4  
     e(  4 -  4) =     12.88559  eV     1   --> A_1  D_1  S_1  
     e(  5 -  5) =     14.12895  eV     1   --> B_2  D_4  S_4  
     e(  6 -  6) =     16.83755  eV     1   --> A_1  D_1  S_1  
     e(  7 -  7) =     32.34625  eV     1   --> A_1  D_1  S_1  
     e(  8 -  8) =     33.58372  eV     1   --> B_1  D_3  S_3  
     e(  9 -  9) =     34.01639  eV     1   --> A_2  D_2  S_2  
     e( 10 - 10) =     40.41613  eV     1   -->   ?

 **************************************************************************

 **************************************************************************

                    xk=(  -0.07500,   0.00000,   1.00000  )

     Band symmetry, C_2v (mm2)  point group:

     e(  1 -  1) =      4.81342  eV     1   --> B_1  D_3  S_3  
     e(  2 -  2) =      6.07998  eV     1   --> A_1  D_1  S_1  
     e(  3 -  3) =     11.85208  eV     1   --> B_2  D_4  S_4  
     e(  4 -  4) =     12.78305  eV     1   --> A_1  D_1  S_1  
     e(  5 -  5) =     14.35001  eV     1   --> B_2  D_4  S_4  
     e(  6 -  6) =     16.96272  eV     1   --> A_1  D_1  S_1  
     e(  7 -  7) =     32.26700  eV     1   --> A_1  D_1  S_1  
     e(  8 -  8) =     33.41000  eV     1   --> B_1  D_3  S_3  
     e(  9 -  9) =     34.01931  eV     1   --> A_2  D_2  S_2  
     e( 10 - 10) =     40.30268  eV     1   --> A_1  D_1  S_1  

 **************************************************************************

 **************************************************************************

                    xk=(  -0.08750,   0.00000,   1.00000  )

     Band symmetry, C_2v (mm2)  point group:

     e(  1 -  1) =      4.83017  eV     1   --> B_1  D_3  S_3  
     e(  2 -  2) =      6.09776  eV     1   --> A_1  D_1  S_1  
     e(  3 -  3) =     11.66181  eV     1   --> B_2  D_4  S_4  
     e(  4 -  4) =     12.66950  eV     1   --> A_1  D_1  S_1  
     e(  5 -  5) =     14.57381  eV     1   --> B_2  D_4  S_4  
     e(  6 -  6) =     17.10300  eV     1   --> A_1  D_1  S_1  
     e(  7 -  7) =     32.17408  eV     1   --> A_1  D_1  S_1  
     e(  8 -  8) =     33.21359  eV     1   --> B_1  D_3  S_3  
     e(  9 -  9) =     34.02274  eV     1   --> A_2  D_2  S_2  
     e( 10 - 10) =     40.19092  eV     1   --> A_1  D_1  S_1  

 **************************************************************************

 **************************************************************************

                    xk=(  -0.10000,  -0.00000,   1.00000  )

     Band symmetry, C_2v (mm2)  point group:

     e(  1 -  1) =      4.84950  eV     1   --> B_1  D_3  S_3  
     e(  2 -  2) =      6.11826  eV     1   --> A_1  D_1  S_1  
     e(  3 -  3) =     11.47403  eV     1   --> B_2  D_4  S_4  
     e(  4 -  4) =     12.54716  eV     1   --> A_1  D_1  S_1  
     e(  5 -  5) =     14.80030  eV     1   --> B_2  D_4  S_4  
     e(  6 -  6) =     17.25624  eV     1   --> A_1  D_1  S_1  
     e(  7 -  7) =     32.06794  eV     1   --> A_1  D_1  S_1  
     e(  8 -  8) =     32.99744  eV     1   --> B_1  D_3  S_3  
     e(  9 -  9) =     34.02664  eV     1   --> A_2  D_2  S_2  
     e( 10 - 10) =     40.08366  eV     1   --> A_1  D_1  S_1  

 **************************************************************************

 **************************************************************************

                    xk=(  -0.11250,  -0.00000,   1.00000  )

     Band symmetry, C_2v (mm2)  point group:

     e(  1 -  1) =      4.87140  eV     1   --> B_1  D_3  S_3  
     e(  2 -  2) =      6.14148  eV     1   --> A_1  D_1  S_1  
     e(  3 -  3) =     11.28875  eV     1   --> B_2  D_4  S_4  
     e(  4 -  4) =     12.41777  eV     1   --> A_1  D_1  S_1  
     e(  5 -  5) =     15.02940  eV     1   --> B_2  D_4  S_4  
     e(  6 -  6) =     17.42052  eV     1   --> A_1  D_1  S_1  
     e(  7 -  7) =     31.94890  eV     1   --> A_1  D_1  S_1  
     e(  8 -  8) =     32.76428  eV     1   --> B_1  D_3  S_3  
     e(  9 -  9) =     34.03100  eV     1   --> A_2  D_2  S_2  
     e( 10 - 10) =     39.98091  eV     1   --> A_1  D_1  S_1  

 **************************************************************************

 **************************************************************************

                    xk=(  -0.12500,   0.00000,   1.00000  )

     Band symmetry, C_2v (mm2)  point group:

     e(  1 -  1) =      4.89589  eV     1   --> B_1  D_3  S_3  
     e(  2 -  2) =      6.16741  eV     1   --> A_1  D_1  S_1  
     e(  3 -  3) =     11.10602  eV     1   --> B_2  D_4  S_4  
     e(  4 -  4) =     12.28294  eV     1   --> A_1  D_1  S_1  
     e(  5 -  5) =     15.26110  eV     1   --> B_2  D_4  S_4  
     e(  6 -  6) =     17.59429  eV     1   --> A_1  D_1  S_1  
     e(  7 -  7) =     31.81752  eV     1   --> A_1  D_1  S_1  
     e(  8 -  8) =     32.51655  eV     1   --> B_1  D_3  S_3  
     e(  9 -  9) =     34.03579  eV     1   --> A_2  D_2  S_2  
     e( 10 - 10) =     39.88431  eV     1   --> A_1  D_1  S_1  

 **************************************************************************

 **************************************************************************

                    xk=(  -0.13750,   0.00000,   1.00000  )

     Band symmetry, C_2v (mm2)  point group:

     e(  1 -  1) =      4.92295  eV     1   --> B_1  D_3  S_3  
     e(  2 -  2) =      6.19605  eV     1   --> A_1  D_1  S_1  
     e(  3 -  3) =     10.92586  eV     1   --> B_2  D_4  S_4  
     e(  4 -  4) =     12.14398  eV     1   --> A_1  D_1  S_1  
     e(  5 -  5) =     15.49537  eV     1   --> B_2  D_4  S_4  
     e(  6 -  6) =     17.77624  eV     1   --> A_1  D_1  S_1  
     e(  7 -  7) =     31.67435  eV     1   --> A_1  D_1  S_1  
     e(  8 -  8) =     32.25640  eV     1   --> B_1  D_3  S_3  
     e(  9 -  9) =     34.04098  eV     1   --> A_2  D_2  S_2  
     e( 10 - 10) =     39.79441  eV     1   --> A_1  D_1  S_1  

 **************************************************************************

 **************************************************************************

                    xk=(  -0.15000,   0.00000,   1.00000  )

     Band symmetry, C_2v (mm2)  point group:

     e(  1 -  1) =      4.95258  eV     1   --> B_1  D_3  S_3  
     e(  2 -  2) =      6.22738  eV     1   --> A_1  D_1  S_1  
     e(  3 -  3) =     10.74826  eV     1   --> B_2  D_4  S_4  
     e(  4 -  4) =     12.00184  eV     1   --> A_1  D_1  S_1  
     e(  5 -  5) =     15.73210  eV     1   --> B_2  D_4  S_4  
     e(  6 -  6) =     17.96521  eV     1   --> A_1  D_1  S_1  
     e(  7 -  7) =     31.51972  eV     1   --> A_1  D_1  S_1  
     e(  8 -  8) =     31.98561  eV     1   --> B_1  D_3  S_3  
     e(  9 -  9) =     34.04655  eV     1   --> A_2  D_2  S_2  
     e( 10 - 10) =     39.71052  eV     1   --> A_1  D_1  S_1  

 **************************************************************************

 **************************************************************************

                    xk=(  -0.16250,  -0.00000,   1.00000  )

     Band symmetry, C_2v (mm2)  point group:

     e(  1 -  1) =      4.98480  eV     1   --> B_1  D_3  S_3  
     e(  2 -  2) =      6.26140  eV     1   --> A_1  D_1  S_1  
     e(  3 -  3) =     10.57326  eV     1   --> B_2  D_4  S_4  
     e(  4 -  4) =     11.85761  eV     1   --> A_1  D_1  S_1  
     e(  5 -  5) =     15.97146  eV     1   --> B_2  D_4  S_4  
     e(  6 -  6) =     18.16045  eV     1   --> A_1  D_1  S_1  
     e(  7 -  7) =     31.35478  eV     1   --> A_1  D_1  S_1  
     e(  8 -  8) =     31.70599  eV     1   --> B_1  D_3  S_3  
     e(  9 -  9) =     34.05247  eV     1   --> A_2  D_2  S_2  
     e( 10 - 10) =     39.63483  eV     1   --> A_1  D_1  S_1  

 **************************************************************************

 **************************************************************************

                    xk=(  -0.17500,  -0.00000,   1.00000  )

     Band symmetry, C_2v (mm2)  point group:

     e(  1 -  1) =      5.01960  eV     1   --> B_1  D_3  S_3  
     e(  2 -  2) =      6.29810  eV     1   --> A_1  D_1  S_1  
     e(  3 -  3) =     10.40084  eV     1   --> B_2  D_4  S_4  
     e(  4 -  4) =     11.71189  eV     1   --> A_1  D_1  S_1  
     e(  5 -  5) =     16.21334  eV     1   --> B_2  D_4  S_4  
     e(  6 -  6) =     18.36115  eV     1   --> A_1  D_1  S_1  
     e(  7 -  7) =     31.17996  eV     1   --> A_1  D_1  S_1  
     e(  8 -  8) =     31.41884  eV     1   --> B_1  D_3  S_3  
     e(  9 -  9) =     34.05870  eV     1   --> A_2  D_2  S_2  
     e( 10 - 10) =     39.56619  eV     1   --> A_1  D_1  S_1  

 **************************************************************************

 **************************************************************************

                    xk=(  -0.18750,   0.00000,   1.00000  )

     Band symmetry, C_2v (mm2)  point group:

     e(  1 -  1) =      5.05698  eV     1   --> B_1  D_3  S_3  
     e(  2 -  2) =      6.33747  eV     1   --> A_1  D_1  S_1  
     e(  3 -  3) =     10.23101  eV     1   --> B_2  D_4  S_4  
     e(  4 -  4) =     11.56529  eV     1   --> A_1  D_1  S_1  
     e(  5 -  5) =     16.45773  eV     1   --> B_2  D_4  S_4  
     e(  6 -  6) =     18.56669  eV     1   --> A_1  D_1  S_1  
     e(  7 -  7) =     30.99596  eV     1   --> A_1  D_1  S_1  
     e(  8 -  8) =     31.12537  eV     1   --> B_1  D_3  S_3  
     e(  9 -  9) =     34.06521  eV     1   --> A_2  D_2  S_2  
     e( 10 - 10) =     39.50446  eV     1   --> A_1  D_1  S_1  

 **************************************************************************

 **************************************************************************

                    xk=(  -0.20000,   0.00000,   1.00000  )

     Band symmetry, C_2v (mm2)  point group:

     e(  1 -  1) =      5.09694  eV     1   --> B_1  D_3  S_3  
     e(  2 -  2) =      6.37949  eV     1   --> A_1  D_1  S_1  
     e(  3 -  3) =     10.06378  eV     1   --> B_2  D_4  S_4  
     e(  4 -  4) =     11.41824  eV     1   --> A_1  D_1  S_1  
     e(  5 -  5) =     16.70456  eV     1   --> B_2  D_4  S_4  
     e(  6 -  6) =     18.77638  eV     1   --> A_1  D_1  S_1  
     e(  7 -  7) =     30.80314  eV     1   --> A_1  D_1  S_1  
     e(  8 -  8) =     30.82659  eV     1   --> B_1  D_3  S_3  
     e(  9 -  9) =     34.07195  eV     1   --> A_2  D_2  S_2  
     e( 10 - 10) =     39.44881  eV     1   --> A_1  D_1  S_1  

 **************************************************************************

 **************************************************************************

                    xk=(  -0.21250,   0.00000,   1.00000  )

     Band symmetry, C_2v (mm2)  point group:

     e(  1 -  1) =      5.13948  eV     1   --> B_1  D_3  S_3  
     e(  2 -  2) =      6.42415  eV     1   --> A_1  D_1  S_1  
     e(  3 -  3) =      9.89914  eV     1   --> B_2  D_4  S_4  
     e(  4 -  4) =     11.27126  eV     1   --> A_1  D_1  S_1  
     e(  5 -  5) =     16.95378  eV     1   --> B_2  D_4  S_4  
     e(  6 -  6) =     18.99003  eV     1   --> A_1  D_1  S_1  
     e(  7 -  7) =     30.52340  eV     1   --> B_1  D_3  S_3  
     e(  8 -  8) =     30.60271  eV     1   --> A_1  D_1  S_1  
     e(  9 -  9) =     34.07890  eV     1   --> A_2  D_2  S_2  
     e( 10 - 10) =     39.40004  eV     1   --> A_1  D_1  S_1  

 **************************************************************************

 **************************************************************************

                    xk=(  -0.22500,  -0.00000,   1.00000  )

     Band symmetry, C_2v (mm2)  point group:

     e(  1 -  1) =      5.18461  eV     1   --> B_1  D_3  S_3  
     e(  2 -  2) =      6.47143  eV     1   --> A_1  D_1  S_1  
     e(  3 -  3) =      9.73715  eV     1   --> B_2  D_4  S_4  
     e(  4 -  4) =     11.12469  eV     1   --> A_1  D_1  S_1  
     e(  5 -  5) =     17.20566  eV     1   --> B_2  D_4  S_4  
     e(  6 -  6) =     19.20720  eV     1   --> A_1  D_1  S_1  
     e(  7 -  7) =     30.21662  eV     1   --> B_1  D_3  S_3  
     e(  8 -  8) =     30.39532  eV     1   --> A_1  D_1  S_1  
     e(  9 -  9) =     34.08600  eV     1   --> A_2  D_2  S_2  
     e( 10 - 10) =     39.35743  eV     1   --> A_1  D_1  S_1  

 **************************************************************************

 **************************************************************************

                    xk=(  -0.23750,  -0.00000,   1.00000  )

     Band symmetry, C_2v (mm2)  point group:

     e(  1 -  1) =      5.23231  eV     1   --> B_1  D_3  S_3  
     e(  2 -  2) =      6.52132  eV     1   --> A_1  D_1  S_1  
     e(  3 -  3) =      9.57773  eV     1   --> B_2  D_4  S_4  
     e(  4 -  4) =     10.97878  eV     1   --> A_1  D_1  S_1  
     e(  5 -  5) =     17.45996  eV     1   --> B_2  D_4  S_4  
     e(  6 -  6) =     19.42746  eV     1   --> A_1  D_1  S_1  
     e(  7 -  7) =     29.90687  eV     1   --> B_1  D_3  S_3  
     e(  8 -  8) =     30.18150  eV     1   --> A_1  D_1  S_1  
     e(  9 -  9) =     34.09323  eV     1   --> A_2  D_2  S_2  
     e( 10 - 10) =     39.32045  eV     1   --> A_1  D_1  S_1  

 **************************************************************************

 **************************************************************************

                    xk=(  -0.25000,   0.00000,   1.00000  )

     Band symmetry, C_2v (mm2)  point group:

     e(  1 -  1) =      5.28260  eV     1   --> B_1  D_3  S_3  
     e(  2 -  2) =      6.57378  eV     1   --> A_1  D_1  S_1  
     e(  3 -  3) =      9.42091  eV     1   --> B_2  D_4  S_4  
     e(  4 -  4) =     10.83381  eV     1   --> A_1  D_1  S_1  
     e(  5 -  5) =     17.71671  eV     1   --> B_2  D_4  S_4  
     e(  6 -  6) =     19.65052  eV     1   --> A_1  D_1  S_1  
     e(  7 -  7) =     29.59474  eV     1   --> B_1  D_3  S_3  
     e(  8 -  8) =     29.96195  eV     1   --> A_1  D_1  S_1  
     e(  9 -  9) =     34.10052  eV     1   --> A_2  D_2  S_2  
     e( 10 - 10) =     39.28871  eV     1   --> A_1  D_1  S_1  

 **************************************************************************

 **************************************************************************

                    xk=(  -0.26250,   0.00000,   1.00000  )

     Band symmetry, C_2v (mm2)  point group:

     e(  1 -  1) =      5.33547  eV     1   --> B_1  D_3  S_3  
     e(  2 -  2) =      6.62879  eV     1   --> A_1  D_1  S_1  
     e(  3 -  3) =      9.26669  eV     1   --> B_2  D_4  S_4  
     e(  4 -  4) =     10.69000  eV     1   --> A_1  D_1  S_1  
     e(  5 -  5) =     17.97589  eV     1   --> B_2  D_4  S_4  
     e(  6 -  6) =     19.87610  eV     1   --> A_1  D_1  S_1  
     e(  7 -  7) =     29.28074  eV     1   --> B_1  D_3  S_3  
     e(  8 -  8) =     29.73731  eV     1   --> A_1  D_1  S_1  
     e(  9 -  9) =     34.10784  eV     1   --> A_2  D_2  S_2  
     e( 10 - 10) =     39.26180  eV     1   --> A_1  D_1  S_1  

 **************************************************************************

 **************************************************************************

                    xk=(  -0.27500,   0.00000,   1.00000  )

     Band symmetry, C_2v (mm2)  point group:

     e(  1 -  1) =      5.39091  eV     1   --> B_1  D_3  S_3  
     e(  2 -  2) =      6.68632  eV     1   --> A_1  D_1  S_1  
     e(  3 -  3) =      9.11508  eV     1   --> B_2  D_4  S_4  
     e(  4 -  4) =     10.54752  eV     1   --> A_1  D_1  S_1  
     e(  5 -  5) =     18.23748  eV     1   --> B_2  D_4  S_4  
     e(  6 -  6) =     20.10384  eV     1   --> A_1  D_1  S_1  
     e(  7 -  7) =     28.96514  eV     1   --> B_1  D_3  S_3  
     e(  8 -  8) =     29.50800  eV     1   --> A_1  D_1  S_1  
     e(  9 -  9) =     34.11515  eV     1   --> A_2  D_2  S_2  
     e( 10 - 10) =     39.23924  eV     1   --> A_1  D_1  S_1  

 **************************************************************************

 **************************************************************************

                    xk=(  -0.28750,  -0.00000,   1.00000  )

     Band symmetry, C_2v (mm2)  point group:

     e(  1 -  1) =      5.44896  eV     1   --> B_1  D_3  S_3  
     e(  2 -  2) =      6.74634  eV     1   --> A_1  D_1  S_1  
     e(  3 -  3) =      8.96611  eV     1   --> B_2  D_4  S_4  
     e(  4 -  4) =     10.40661  eV     1   --> A_1  D_1  S_1  
     e(  5 -  5) =     18.50149  eV     1   --> B_2  D_4  S_4  
     e(  6 -  6) =     20.33374  eV     1   --> A_1  D_1  S_1  
     e(  7 -  7) =     28.64882  eV     1   --> B_1  D_3  S_3  
     e(  8 -  8) =     29.27520  eV     1   --> A_1  D_1  S_1  
     e(  9 -  9) =     34.12240  eV     1   --> A_2  D_2  S_2  
     e( 10 - 10) =     39.22080  eV     1   --> A_1  D_1  S_1  

 **************************************************************************

 **************************************************************************

                    xk=(  -0.30000,   0.00000,   1.00000  )

     Band symmetry, C_2v (mm2)  point group:

     e(  1 -  1) =      5.50958  eV     1   --> B_1  D_3  S_3  
     e(  2 -  2) =      6.80879  eV     1   --> A_1  D_1  S_1  
     e(  3 -  3) =      8.81971  eV     1   --> B_2  D_4  S_4  
     e(  4 -  4) =     10.26741  eV     1   --> A_1  D_1  S_1  
     e(  5 -  5) =     18.76786  eV     1   --> B_2  D_4  S_4  
     e(  6 -  6) =     20.56518  eV     1   --> A_1  D_1  S_1  
     e(  7 -  7) =     28.33163  eV     1   --> B_1  D_3  S_3  
     e(  8 -  8) =     29.03906  eV     1   --> A_1  D_1  S_1  
     e(  9 -  9) =     34.12953  eV     1   --> A_2  D_2  S_2  
     e( 10 - 10) =     39.20594  eV     1   --> A_1  D_1  S_1  

 **************************************************************************

 **************************************************************************

                    xk=(  -0.31250,   0.00000,   1.00000  )

     Band symmetry, C_2v (mm2)  point group:

     e(  1 -  1) =      5.57280  eV     1   --> B_1  D_3  S_3  
     e(  2 -  2) =      6.87364  eV     1   --> A_1  D_1  S_1  
     e(  3 -  3) =      8.67593  eV     1   --> B_2  D_4  S_4  
     e(  4 -  4) =     10.13007  eV     1   --> A_1  D_1  S_1  
     e(  5 -  5) =     19.03659  eV     1   --> B_2  D_4  S_4  
     e(  6 -  6) =     20.79802  eV     1   --> A_1  D_1  S_1  
     e(  7 -  7) =     28.01404  eV     1   --> B_1  D_3  S_3  
     e(  8 -  8) =     28.80031  eV     1   --> A_1  D_1  S_1  
     e(  9 -  9) =     34.13652  eV     1   --> A_2  D_2  S_2  
     e( 10 - 10) =     39.19428  eV     1   --> A_1  D_1  S_1  

 **************************************************************************

 **************************************************************************

                    xk=(  -0.32500,   0.00000,   1.00000  )

     Band symmetry, C_2v (mm2)  point group:

     e(  1 -  1) =      5.63860  eV     1   --> B_1  D_3  S_3  
     e(  2 -  2) =      6.94080  eV     1   --> A_1  D_1  S_1  
     e(  3 -  3) =      8.53475  eV     1   --> B_2  D_4  S_4  
     e(  4 -  4) =      9.99476  eV     1   --> A_1  D_1  S_1  
     e(  5 -  5) =     19.30767  eV     1   --> B_2  D_4  S_4  
     e(  6 -  6) =     21.03192  eV     1   --> A_1  D_1  S_1  
     e(  7 -  7) =     27.69631  eV     1   --> B_1  D_3  S_3  
     e(  8 -  8) =     28.55956  eV     1   --> A_1  D_1  S_1  
     e(  9 -  9) =     34.14331  eV     1   --> A_2  D_2  S_2  
     e( 10 - 10) =     39.18545  eV     1   --> A_1  D_1  S_1  

 **************************************************************************

 **************************************************************************

                    xk=(  -0.33750,   0.00000,   1.00000  )

     Band symmetry, C_2v (mm2)  point group:

     e(  1 -  1) =      5.70698  eV     1   --> B_1  D_3  S_3  
     e(  2 -  2) =      7.01021  eV     1   --> A_1  D_1  S_1  
     e(  3 -  3) =      8.39618  eV     1   --> B_2  D_4  S_4  
     e(  4 -  4) =      9.86164  eV     1   --> A_1  D_1  S_1  
     e(  5 -  5) =     19.58107  eV     1   --> B_2  D_4  S_4  
     e(  6 -  6) =     21.26653  eV     1   --> A_1  D_1  S_1  
     e(  7 -  7) =     27.37870  eV     1   --> B_1  D_3  S_3  
     e(  8 -  8) =     28.31747  eV     1   --> A_1  D_1  S_1  
     e(  9 -  9) =     34.14985  eV     1   --> A_2  D_2  S_2  
     e( 10 - 10) =     39.17907  eV     1   --> A_1  D_1  S_1  

 **************************************************************************

 **************************************************************************

                    xk=(  -0.35000,  -0.00000,   1.00000  )

     Band symmetry, C_2v (mm2)  point group:

     e(  1 -  1) =      5.77796  eV     1   --> B_1  D_3  S_3  
     e(  2 -  2) =      7.08174  eV     1   --> A_1  D_1  S_1  
     e(  3 -  3) =      8.26022  eV     1   --> B_2  D_4  S_4  
     e(  4 -  4) =      9.73088  eV     1   --> A_1  D_1  S_1  
     e(  5 -  5) =     19.85677  eV     1   --> B_2  D_4  S_4  
     e(  6 -  6) =     21.50143  eV     1   --> A_1  D_1  S_1  
     e(  7 -  7) =     27.06140  eV     1   --> B_1  D_3  S_3  
     e(  8 -  8) =     28.07469  eV     1   --> A_1  D_1  S_1  
     e(  9 -  9) =     34.15611  eV     1   --> A_2  D_2  S_2  
     e( 10 - 10) =     39.17478  eV     1   --> A_1  D_1  S_1  

 **************************************************************************

 **************************************************************************

                    xk=(  -0.36250,   0.00000,   1.00000  )

     Band symmetry, C_2v (mm2)  point group:

     e(  1 -  1) =      5.85153  eV     1   --> B_1  D_3  S_3  
     e(  2 -  2) =      7.15527  eV     1   --> A_1  D_1  S_1  
     e(  3 -  3) =      8.12686  eV     1   --> B_2  D_4  S_4  
     e(  4 -  4) =      9.60266  eV     1   --> A_1  D_1  S_1  
     e(  5 -  5) =     20.13474  eV     1   --> B_2  D_4  S_4  
     e(  6 -  6) =     21.73584  eV     1   --> A_1  D_1  S_1  
     e(  7 -  7) =     26.74463  eV     1   --> B_1  D_3  S_3  
     e(  8 -  8) =     27.83179  eV     1   --> A_1  D_1  S_1  
     e(  9 -  9) =     34.16204  eV     1   --> A_2  D_2  S_2  
     e( 10 - 10) =     39.17219  eV     1   --> A_1  D_1  S_1  

 **************************************************************************

 **************************************************************************

                    xk=(  -0.37500,   0.00000,   1.00000  )

     Band symmetry, C_2v (mm2)  point group:

     e(  1 -  1) =      5.92769  eV     1   --> B_1  D_3  S_3  
     e(  2 -  2) =      7.23062  eV     1   --> A_1  D_1  S_1  
     e(  3 -  3) =      7.99612  eV     1   --> B_2  D_4  S_4  
     e(  4 -  4) =      9.47726  eV     1   --> A_1  D_1  S_1  
     e(  5 -  5) =     20.41497  eV     1   --> B_2  D_4  S_4  
     e(  6 -  6) =     21.97002  eV     1   --> A_1  D_1  S_1  
     e(  7 -  7) =     26.42858  eV     1   --> B_1  D_3  S_3  
     e(  8 -  8) =     27.59046  eV     1   --> A_1  D_1  S_1  
     e(  9 -  9) =     34.16760  eV     1   --> A_2  D_2  S_2  
     e( 10 - 10) =     39.17111  eV     1   --> A_1  D_1  S_1  

 **************************************************************************

 **************************************************************************

                    xk=(  -0.38750,   0.00000,   1.00000  )

     Band symmetry, C_2v (mm2)  point group:

     e(  1 -  1) =      6.00644  eV     1   --> B_1  D_3  S_3  
     e(  2 -  2) =      7.30752  eV     1   --> A_1  D_1  S_1  
     e(  3 -  3) =      7.86797  eV     1   --> B_2  D_4  S_4  
     e(  4 -  4) =      9.35494  eV     1   --> A_1  D_1  S_1  
     e(  5 -  5) =     20.69742  eV     1   --> B_2  D_4  S_4  
     e(  6 -  6) =     22.20201  eV     1   --> A_1  D_1  S_1  
     e(  7 -  7) =     26.11334  eV     1   --> B_1  D_3  S_3  
     e(  8 -  8) =     27.35067  eV     1   --> A_1  D_1  S_1  
     e(  9 -  9) =     34.17276  eV     1   --> A_2  D_2  S_2  
     e( 10 - 10) =     39.17110  eV     1   --> A_1  D_1  S_1  

 **************************************************************************

 **************************************************************************

                    xk=(  -0.40000,   0.00000,   1.00000  )

     Band symmetry, C_2v (mm2)  point group:

     e(  1 -  1) =      6.08778  eV     1   --> B_1  D_3  S_3  
     e(  2 -  2) =      7.38563  eV     1   --> A_1  D_1  S_1  
     e(  3 -  3) =      7.74244  eV     1   --> B_2  D_4  S_4  
     e(  4 -  4) =      9.23610  eV     1   --> A_1  D_1  S_1  
     e(  5 -  5) =     20.98206  eV     1   --> B_2  D_4  S_4  
     e(  6 -  6) =     22.43110  eV     1   --> A_1  D_1  S_1  
     e(  7 -  7) =     25.79908  eV     1   --> B_1  D_3  S_3  
     e(  8 -  8) =     27.11417  eV     1   --> A_1  D_1  S_1  
     e(  9 -  9) =     34.17748  eV     1   --> A_2  D_2  S_2  
     e( 10 - 10) =     39.17193  eV     1   --> A_1  D_1  S_1  

 **************************************************************************

 **************************************************************************

                    xk=(  -0.41250,  -0.00000,   1.00000  )

     Band symmetry, C_2v (mm2)  point group:

     e(  1 -  1) =      6.17171  eV     1   --> B_1  D_3  S_3  
     e(  2 -  2) =      7.46444  eV     1   --> A_1  D_1  S_1  
     e(  3 -  3) =      7.61951  eV     1   --> B_2  D_4  S_4  
     e(  4 -  4) =      9.12128  eV     1   --> A_1  D_1  S_1  
     e(  5 -  5) =     21.26886  eV     1   --> B_2  D_4  S_4  
     e(  6 -  6) =     22.65568  eV     1   --> A_1  D_1  S_1  
     e(  7 -  7) =     25.48594  eV     1   --> B_1  D_3  S_3  
     e(  8 -  8) =     26.88272  eV     1   --> A_1  D_1  S_1  
     e(  9 -  9) =     34.18172  eV     1   --> A_2  D_2  S_2  
     e( 10 - 10) =     39.17332  eV     1   --> A_1  D_1  S_1  

 **************************************************************************

 **************************************************************************

                    xk=(  -0.42500,   0.00000,   1.00000  )

     Band symmetry, C_2v (mm2)  point group:

     e(  1 -  1) =      6.25824  eV     1   --> B_1  D_3  S_3  
     e(  2 -  2) =      7.49918  eV     1   --> B_2  D_4  S_4  
     e(  3 -  3) =      7.54319  eV     1   --> A_1  D_1  S_1  
     e(  4 -  4) =      9.01127  eV     1   --> A_1  D_1  S_1  
     e(  5 -  5) =     21.55779  eV     1   --> B_2  D_4  S_4  
     e(  6 -  6) =     22.87348  eV     1   --> A_1  D_1  S_1  
     e(  7 -  7) =     25.17402  eV     1   --> B_1  D_3  S_3  
     e(  8 -  8) =     26.65873  eV     1   --> A_1  D_1  S_1  
     e(  9 -  9) =     34.18546  eV     1   --> A_2  D_2  S_2  
     e( 10 - 10) =     39.17504  eV     1   --> A_1  D_1  S_1  

 **************************************************************************

 **************************************************************************

                    xk=(  -0.43750,   0.00000,   1.00000  )

     Band symmetry, C_2v (mm2)  point group:

     e(  1 -  1) =      6.34737  eV     1   --> B_1  D_3  S_3  
     e(  2 -  2) =      7.38146  eV     1   --> B_2  D_4  S_4  
     e(  3 -  3) =      7.62071  eV     1   --> A_1  D_1  S_1  
     e(  4 -  4) =      8.90726  eV     1   --> A_1  D_1  S_1  
     e(  5 -  5) =     21.84881  eV     1   --> B_2  D_4  S_4  
     e(  6 -  6) =     23.08114  eV     1   --> A_1  D_1  S_1  
     e(  7 -  7) =     24.86344  eV     1   --> B_1  D_3  S_3  
     e(  8 -  8) =     26.44565  eV     1   --> A_1  D_1  S_1  
     e(  9 -  9) =     34.18867  eV     1   --> A_2  D_2  S_2  
     e( 10 - 10) =     39.17688  eV     1   --> A_1  D_1  S_1  

 **************************************************************************

 **************************************************************************

                    xk=(  -0.45000,   0.00000,   1.00000  )

     Band symmetry, C_2v (mm2)  point group:

     e(  1 -  1) =      6.43909  eV     1   --> B_1  D_3  S_3  
     e(  2 -  2) =      7.26635  eV     1   --> B_2  D_4  S_4  
     e(  3 -  3) =      7.69515  eV     1   --> A_1  D_1  S_1  
     e(  4 -  4) =      8.81112  eV     1   --> A_1  D_1  S_1  
     e(  5 -  5) =     22.14188  eV     1   --> B_2  D_4  S_4  
     e(  6 -  6) =     23.27369  eV     1   --> A_1  D_1  S_1  
     e(  7 -  7) =     24.55429  eV     1   --> B_1  D_3  S_3  
     e(  8 -  8) =     26.24855  eV     1   --> A_1  D_1  S_1  
     e(  9 -  9) =     34.19133  eV     1   --> A_2  D_2  S_2  
     e( 10 - 10) =     39.17864  eV     1   --> A_1  D_1  S_1  

 **************************************************************************

 **************************************************************************

                    xk=(  -0.46250,   0.00000,   1.00000  )

     Band symmetry, C_2v (mm2)  point group:

     e(  1 -  1) =      6.53340  eV     1   --> B_1  D_3  S_3  
     e(  2 -  2) =      7.15384  eV     1   --> B_2  D_4  S_4  
     e(  3 -  3) =      7.76347  eV     1   --> A_1  D_1  S_1  
     e(  4 -  4) =      8.72591  eV     1   --> A_1  D_1  S_1  
     e(  5 -  5) =     22.43697  eV     1   --> B_2  D_4  S_4  
     e(  6 -  6) =     23.44373  eV     1   --> A_1  D_1  S_1  
     e(  7 -  7) =     24.24666  eV     1   --> B_1  D_3  S_3  
     e(  8 -  8) =     26.07490  eV     1   --> A_1  D_1  S_1  
     e(  9 -  9) =     34.19342  eV     1   --> A_2  D_2  S_2  
     e( 10 - 10) =     39.18017  eV     1   --> A_1  D_1  S_1  

 **************************************************************************

 **************************************************************************

                    xk=(  -0.47500,  -0.00000,   1.00000  )

     Band symmetry, C_2v (mm2)  point group:

     e(  1 -  1) =      6.63032  eV     1   --> B_1  D_3  S_3  
     e(  2 -  2) =      7.04392  eV     1   --> B_2  D_4  S_4  
     e(  3 -  3) =      7.82088  eV     1   --> A_1  D_1  S_1  
     e(  4 -  4) =      8.65643  eV     1   --> A_1  D_1  S_1  
     e(  5 -  5) =     22.73402  eV     1   --> B_2  D_4  S_4  
     e(  6 -  6) =     23.58074  eV     1   --> A_1  D_1  S_1  
     e(  7 -  7) =     23.94063  eV     1   --> B_1  D_3  S_3  
     e(  8 -  8) =     25.93528  eV     1   --> A_1  D_1  S_1  
     e(  9 -  9) =     34.19492  eV     1   --> A_2  D_2  S_2  
     e( 10 - 10) =     39.18136  eV     1   --> A_1  D_1  S_1  

 **************************************************************************

 **************************************************************************

                    xk=(  -0.48750,   0.00000,   1.00000  )

     Band symmetry, C_2v (mm2)  point group:

     e(  1 -  1) =      6.72983  eV     1   --> B_1  D_3  S_3  
     e(  2 -  2) =      6.93660  eV     1   --> B_2  D_4  S_4  
     e(  3 -  3) =      7.86048  eV     1   --> A_1  D_1  S_1  
     e(  4 -  4) =      8.60958  eV     1   --> A_1  D_1  S_1  
     e(  5 -  5) =     23.03272  eV     1   --> B_2  D_4  S_4  
     e(  6 -  6) =     23.63626  eV     1   --> B_1  D_3  S_3  
     e(  7 -  7) =     23.67140  eV     1   --> A_1  D_1  S_1  
     e(  8 -  8) =     25.84292  eV     1   --> A_1  D_1  S_1  
     e(  9 -  9) =     34.19582  eV     1   --> A_2  D_2  S_2  
     e( 10 - 10) =     39.18211  eV     1   --> A_1  D_1  S_1  

 **************************************************************************

 **************************************************************************

                    xk=(  -0.50000,   0.00000,   1.00000  )

     point group D_2d (-42m)
     there are  5 classes
     the character table:

       E     2S4   C2    2C2'  2s_d 
A_1    1.00  1.00  1.00  1.00  1.00
A_2    1.00  1.00  1.00 -1.00 -1.00
B_1    1.00 -1.00  1.00  1.00 -1.00
B_2    1.00 -1.00  1.00 -1.00  1.00
E      2.00  0.00 -2.00  0.00  0.00

     the symmetry operations in each class and the name of the first element:

     E        1
                                                                 
     2S4      7    8
                                                                 
     C2       2
                                                                 
     2C2'     3    4
                                                                 
     2s_d     5    6
                                                                 

     Band symmetry, D_2d (-42m) point group:

     e(  1 -  2) =      6.83189  eV     2   --> E    X_5  W_3  
     e(  3 -  3) =      7.87480  eV     1   --> B_2  X_3  W_2  
     e(  4 -  4) =      8.59280  eV     1   --> A_1  X_1  W_1  
     e(  5 -  6) =     23.33350  eV     2   --> E    X_5  W_3  
     e(  7 -  7) =     23.70233  eV     1   --> B_2  X_3  W_2  
     e(  8 -  8) =     25.81033  eV     1   --> A_1  X_1  W_1  
     e(  9 -  9) =     34.19613  eV     1   --> B_1  X_2  W_1' 
     e( 10 - 10) =     39.18236  eV     1   --> B_2  X_3  W_2  

 **************************************************************************

 **************************************************************************

                    xk=(  -0.50000,  -0.01250,   0.98750  )

     point group C_2  (2)   
     there are  2 classes
     the character table:

       E     C2   
A      1.00  1.00
B      1.00 -1.00

     the symmetry operations in each class and the name of the first element:

     E        1
                                                                 
     C2       2
                                                                 

     Band symmetry, C_2  (2)    point group:

     e(  1 -  1) =      6.79369  eV     1   --> B              
     e(  2 -  2) =      6.80868  eV     1   --> A              
     e(  3 -  3) =      7.91827  eV     1   --> B              
     e(  4 -  4) =      8.62082  eV     1   --> A              
     e(  5 -  5) =     23.26156  eV     1   --> B              
     e(  6 -  6) =     23.32025  eV     1   --> A              
     e(  7 -  7) =     23.77947  eV     1   --> B              
     e(  8 -  8) =     25.82641  eV     1   --> A              
     e(  9 -  9) =     34.17689  eV     1   --> A              
     e( 10 - 10) =     39.12679  eV     1   --> B              

 **************************************************************************

 **************************************************************************

                    xk=(  -0.50000,  -0.02500,   0.97500  )

     Band symmetry, C_2  (2)    point group:

     e(  1 -  1) =      6.69381  eV     1   --> B              
     e(  2 -  2) =      6.74301  eV     1   --> A              
     e(  3 -  3) =      8.03387  eV     1   --> B              
     e(  4 -  4) =      8.70083  eV     1   --> A              
     e(  5 -  5) =     23.11974  eV     1   --> B              
     e(  6 -  6) =     23.28095  eV     1   --> A              
     e(  7 -  7) =     23.93499  eV     1   --> B              
     e(  8 -  8) =     25.87348  eV     1   --> A              
     e(  9 -  9) =     34.11963  eV     1   --> A              
     e( 10 - 10) =     38.96604  eV     1   --> B              

 **************************************************************************

 **************************************************************************

                    xk=(  -0.50000,  -0.03750,   0.96250  )

     Band symmetry, C_2  (2)    point group:

     e(  1 -  1) =      6.55825  eV     1   --> B              
     e(  2 -  2) =      6.64438  eV     1   --> A              
     e(  3 -  3) =      8.19559  eV     1   --> B              
     e(  4 -  4) =      8.82335  eV     1   --> A              
     e(  5 -  5) =     22.96297  eV     1   --> B              
     e(  6 -  6) =     23.21867  eV     1   --> A              
     e(  7 -  7) =     24.11356  eV     1   --> B              
     e(  8 -  8) =     25.94857  eV     1   --> A              
     e(  9 -  9) =     34.02561  eV     1   --> A              
     e( 10 - 10) =     38.71469  eV     1   --> B              

 **************************************************************************

 **************************************************************************

                    xk=(  -0.50000,  -0.05000,   0.95000  )

     Band symmetry, C_2  (2)    point group:

     e(  1 -  1) =      6.40529  eV     1   --> B              
     e(  2 -  2) =      6.52301  eV     1   --> A              
     e(  3 -  3) =      8.38516  eV     1   --> B              
     e(  4 -  4) =      8.97815  eV     1   --> A              
     e(  5 -  5) =     22.80413  eV     1   --> B              
     e(  6 -  6) =     23.13732  eV     1   --> A              
     e(  7 -  7) =     24.30288  eV     1   --> B              
     e(  8 -  8) =     26.04758  eV     1   --> A              
     e(  9 -  9) =     33.89687  eV     1   --> A              
     e( 10 - 10) =     38.38995  eV     1   --> B              

 **************************************************************************

 **************************************************************************

                    xk=(  -0.50000,  -0.06250,   0.93750  )

     Band symmetry, C_2  (2)    point group:

     e(  1 -  1) =      6.24481  eV     1   --> B              
     e(  2 -  2) =      6.38719  eV     1   --> A              
     e(  3 -  3) =      8.59270  eV     1   --> B              
     e(  4 -  4) =      9.15693  eV     1   --> A              
     e(  5 -  5) =     22.64689  eV     1   --> B              
     e(  6 -  6) =     23.04098  eV     1   --> A              
     e(  7 -  7) =     24.49929  eV     1   --> B              
     e(  8 -  8) =     26.16614  eV     1   --> A              
     e(  9 -  9) =     33.73604  eV     1   --> A              
     e( 10 - 10) =     38.00787  eV     1   --> B              

 **************************************************************************

[...]
     e(  9 - 10) =     27.91357  eV     2   --> E    L_3       

 **************************************************************************

 **************************************************************************

                    xk=(  -0.30000,  -0.30000,   0.30000  )

     Band symmetry, C_3v (3m)   point group:

     e(  1 -  1) =     -1.00171  eV     1   --> A_1  L_1       
     e(  2 -  2) =      9.27300  eV     1   --> A_1  L_1       
     e(  3 -  4) =     18.28249  eV     2   --> E    L_3       
     e(  5 -  6) =     21.35257  eV     2   --> E    L_3       
     e(  7 -  7) =     21.86035  eV     1   --> A_1  L_1       
     e(  8 -  8) =     25.44064  eV     1   --> A_1  L_1       
     e(  9 - 10) =     27.57514  eV     2   --> E    L_3       

 **************************************************************************

 **************************************************************************

                    xk=(  -0.28750,  -0.28750,   0.28750  )

     Band symmetry, C_3v (3m)   point group:

     e(  1 -  1) =     -1.19691  eV     1   --> A_1  L_1       
     e(  2 -  2) =      9.71036  eV     1   --> A_1  L_1       
     e(  3 -  4) =     18.30275  eV     2   --> E    L_3       
     e(  5 -  6) =     21.55675  eV     2   --> E    L_3       
     e(  7 -  7) =     21.86124  eV     1   --> A_1  L_1       
     e(  8 -  8) =     25.65388  eV     1   --> A_1  L_1       
     e(  9 - 10) =     27.24167  eV     2   --> E    L_3       

 **************************************************************************

 **************************************************************************

                    xk=(  -0.27500,  -0.27500,   0.27500  )

     Band symmetry, C_3v (3m)   point group:

     e(  1 -  1) =     -1.38405  eV     1   --> A_1  L_1       
     e(  2 -  2) =     10.15393  eV     1   --> A_1  L_1       
     e(  3 -  4) =     18.32993  eV     2   --> E    L_3       
     e(  5 -  6) =     21.76565  eV     2   --> E    L_3       
     e(  7 -  7) =     21.86784  eV     1   --> A_1  L_1       
     e(  8 -  8) =     25.87090  eV     1   --> A_1  L_1       
     e(  9 - 10) =     26.91436  eV     2   --> E    L_3       

 **************************************************************************

 **************************************************************************

                    xk=(  -0.26250,  -0.26250,   0.26250  )

     Band symmetry, C_3v (3m)   point group:

     e(  1 -  1) =     -1.56309  eV     1   --> A_1  L_1       
     e(  2 -  2) =     10.60359  eV     1   --> A_1  L_1       
     e(  3 -  4) =     18.36402  eV     2   --> E    L_3       
     e(  5 -  5) =     21.87981  eV     1   --> A_1  L_1       
     e(  6 -  7) =     21.97849  eV     2   --> E    L_3       
     e(  8 -  8) =     26.09127  eV     1   --> A_1  L_1       
     e(  9 - 10) =     26.59433  eV     2   --> E    L_3       

 **************************************************************************

 **************************************************************************

                    xk=(  -0.25000,  -0.25000,   0.25000  )

     Band symmetry, C_3v (3m)   point group:

     e(  1 -  1) =     -1.73401  eV     1   --> A_1  L_1       
     e(  2 -  2) =     11.05918  eV     1   --> A_1  L_1       
     e(  3 -  4) =     18.40499  eV     2   --> E    L_3       
     e(  5 -  5) =     21.89679  eV     1   --> A_1  L_1       
     e(  6 -  7) =     22.19417  eV     2   --> E    L_3       
     e(  8 -  9) =     26.28293  eV     2   --> E    L_3       
     e( 10 - 10) =     26.31449  eV     1   --> A_1  L_1       

 **************************************************************************

 **************************************************************************

                    xk=(  -0.23750,  -0.23750,   0.23750  )

     Band symmetry, C_3v (3m)   point group:

     e(  1 -  1) =     -1.89678  eV     1   --> A_1  L_1       
     e(  2 -  2) =     11.52056  eV     1   --> A_1  L_1       
     e(  3 -  4) =     18.45282  eV     2   --> E    L_3       
     e(  5 -  5) =     21.91835  eV     1   --> A_1  L_1       
     e(  6 -  7) =     22.41104  eV     2   --> E    L_3       
     e(  8 -  9) =     25.98195  eV     2   --> E    L_3       
     e( 10 - 10) =     26.54005  eV     1   --> A_1  L_1       

 **************************************************************************

 **************************************************************************

                    xk=(  -0.22500,  -0.22500,   0.22500  )

     Band symmetry, C_3v (3m)   point group:

     e(  1 -  1) =     -2.05137  eV     1   --> A_1  L_1       
     e(  2 -  2) =     11.98753  eV     1   --> A_1  L_1       
     e(  3 -  4) =     18.50747  eV     2   --> E    L_3       
     e(  5 -  5) =     21.94399  eV     1   --> A_1  L_1       
     e(  6 -  7) =     22.62647  eV     2   --> E    L_3       
     e(  8 -  9) =     25.69405  eV     2   --> E    L_3       
     e( 10 - 10) =     26.76732  eV     1   --> A_1  L_1       

 **************************************************************************

 **************************************************************************

                    xk=(  -0.21250,  -0.21250,   0.21250  )

     Band symmetry, C_3v (3m)   point group:

     e(  1 -  1) =     -2.19776  eV     1   --> A_1  L_1       
     e(  2 -  2) =     12.45989  eV     1   --> A_1  L_1       
     e(  3 -  4) =     18.56889  eV     2   --> E    L_3       
     e(  5 -  5) =     21.97317  eV     1   --> A_1  L_1       
     e(  6 -  7) =     22.83610  eV     2   --> E    L_3       
     e(  8 -  9) =     25.42356  eV     2   --> E    L_3       
     e( 10 - 10) =     26.99565  eV     1   --> A_1  L_1       

 **************************************************************************

 **************************************************************************

                    xk=(  -0.20000,  -0.20000,   0.20000  )

     Band symmetry, C_3v (3m)   point group:

     e(  1 -  1) =     -2.33591  eV     1   --> A_1  L_1       
     e(  2 -  2) =     12.93735  eV     1   --> A_1  L_1       
     e(  3 -  4) =     18.63684  eV     2   --> E    L_3       
     e(  5 -  5) =     22.00510  eV     1   --> A_1  L_1       
     e(  6 -  7) =     23.03198  eV     2   --> E    L_3       
     e(  8 -  9) =     25.17795  eV     2   --> E    L_3       
     e( 10 - 10) =     27.22395  eV     1   --> A_1  L_1       

 **************************************************************************

 **************************************************************************

                    xk=(  -0.18750,  -0.18750,   0.18750  )

     Band symmetry, C_3v (3m)   point group:

     e(  1 -  1) =     -2.46581  eV     1   --> A_1  L_1       
     e(  2 -  2) =     13.41971  eV     1   --> A_1  L_1       
     e(  3 -  4) =     18.71159  eV     2   --> E    L_3       
     e(  5 -  5) =     22.03921  eV     1   --> A_1  L_1       
     e(  6 -  7) =     23.20050  eV     2   --> E    L_3       
     e(  8 -  9) =     24.97119  eV     2   --> E    L_3       
     e( 10 - 10) =     27.45196  eV     1   --> A_1  L_1       

 **************************************************************************

 **************************************************************************

                    xk=(  -0.17500,  -0.17500,   0.17500  )

     Band symmetry, C_3v (3m)   point group:

     e(  1 -  1) =     -2.58744  eV     1   --> A_1  L_1       
     e(  2 -  2) =     13.90662  eV     1   --> A_1  L_1       
     e(  3 -  4) =     18.79288  eV     2   --> E    L_3       
     e(  5 -  5) =     22.07451  eV     1   --> A_1  L_1       
     e(  6 -  7) =     23.31740  eV     2   --> E    L_3       
     e(  8 -  9) =     24.82688  eV     2   --> E    L_3       
     e( 10 - 10) =     27.67831  eV     1   --> A_1  L_1       

 **************************************************************************

 **************************************************************************

                    xk=(  -0.16250,  -0.16250,   0.16250  )

     Band symmetry, C_3v (3m)   point group:

     e(  1 -  1) =     -2.70077  eV     1   --> A_1  L_1       
     e(  2 -  2) =     14.39767  eV     1   --> A_1  L_1       
     e(  3 -  4) =     18.88058  eV     2   --> E    L_3       
     e(  5 -  5) =     22.10992  eV     1   --> A_1  L_1       
     e(  6 -  7) =     23.35232  eV     2   --> E    L_3       
     e(  8 -  9) =     24.77484  eV     2   --> E    L_3       
     e( 10 - 10) =     27.90126  eV     1   --> A_1  L_1       

 **************************************************************************

 **************************************************************************

                    xk=(  -0.15000,  -0.15000,   0.15000  )

     Band symmetry, C_3v (3m)   point group:

     e(  1 -  1) =     -2.80578  eV     1   --> A_1  L_1       
     e(  2 -  2) =     14.89240  eV     1   --> A_1  L_1       
     e(  3 -  4) =     18.97452  eV     2   --> E    L_3       
     e(  5 -  5) =     22.14413  eV     1   --> A_1  L_1       
     e(  6 -  7) =     23.29257  eV     2   --> E    L_3       
     e(  8 -  9) =     24.82709  eV     2   --> E    L_3       
     e( 10 - 10) =     28.11316  eV     1   --> A_1  L_1       

 **************************************************************************

 **************************************************************************

                    xk=(  -0.13750,  -0.13750,   0.13750  )

     Band symmetry, C_3v (3m)   point group:

     e(  1 -  1) =     -2.90246  eV     1   --> A_1  L_1       
     e(  2 -  2) =     15.39021  eV     1   --> A_1  L_1       
     e(  3 -  4) =     19.07448  eV     2   --> E    L_3       
     e(  5 -  5) =     22.17554  eV     1   --> A_1  L_1       
     e(  6 -  7) =     23.15897  eV     2   --> E    L_3       
     e(  8 -  9) =     24.96191  eV     2   --> E    L_3       
     e( 10 - 10) =     27.97375  eV     1   --> A_1  L_1       

 **************************************************************************

 **************************************************************************

                    xk=(  -0.12500,  -0.12500,   0.12500  )

     Band symmetry, C_3v (3m)   point group:

     e(  1 -  1) =     -2.99080  eV     1   --> A_1  L_1       
     e(  2 -  2) =     15.89006  eV     1   --> A_1  L_1       
     e(  3 -  4) =     19.18012  eV     2   --> E    L_3       
     e(  5 -  5) =     22.20173  eV     1   --> A_1  L_1       
     e(  6 -  7) =     22.98285  eV     2   --> E    L_3       
     e(  8 -  9) =     25.14674  eV     2   --> E    L_3       
     e( 10 - 10) =     27.50216  eV     1   --> A_1  L_1       

 **************************************************************************

 **************************************************************************

                    xk=(  -0.11250,  -0.11250,   0.11250  )

     Band symmetry, C_3v (3m)   point group:

     e(  1 -  1) =     -3.07076  eV     1   --> A_1  L_1       
     e(  2 -  2) =     16.39163  eV     1   --> A_1  L_1       
     e(  3 -  4) =     19.29111  eV     2   --> E    L_3       
     e(  5 -  5) =     22.22080  eV     1   --> A_1  L_1       
     e(  6 -  7) =     22.78662  eV     2   --> E    L_3       
     e(  8 -  9) =     25.35783  eV     2   --> E    L_3       
     e( 10 - 10) =     27.02683  eV     1   --> A_1  L_1       

 **************************************************************************

 **************************************************************************

                    xk=(  -0.10000,  -0.10000,   0.10000  )

     Band symmetry, C_3v (3m)   point group:

     e(  1 -  1) =     -3.14235  eV     1   --> A_1  L_1       
     e(  2 -  2) =     16.89340  eV     1   --> A_1  L_1       
     e(  3 -  4) =     19.40682  eV     2   --> E    L_3       
     e(  5 -  5) =     22.22896  eV     1   --> A_1  L_1       
     e(  6 -  7) =     22.58302  eV     2   --> E    L_3       
     e(  8 -  9) =     25.58056  eV     2   --> E    L_3       
     e( 10 - 10) =     26.55789  eV     1   --> A_1  L_1       

 **************************************************************************

 **************************************************************************

                    xk=(  -0.08750,  -0.08750,   0.08750  )

     Band symmetry, C_3v (3m)   point group:

     e(  1 -  1) =     -3.20554  eV     1   --> A_1  L_1       
     e(  2 -  2) =     17.39374  eV     1   --> A_1  L_1       
     e(  3 -  4) =     19.52639  eV     2   --> E    L_3       
     e(  5 -  5) =     22.22150  eV     1   --> A_1  L_1       
     e(  6 -  7) =     22.37947  eV     2   --> E    L_3       
     e(  8 -  9) =     25.80521  eV     2   --> E    L_3       
     e( 10 - 10) =     26.10200  eV     1   --> A_1  L_1       

 **************************************************************************

 **************************************************************************

                    xk=(  -0.07500,  -0.07500,   0.07500  )

     Band symmetry, C_3v (3m)   point group:

     e(  1 -  1) =     -3.26033  eV     1   --> A_1  L_1       
     e(  2 -  2) =     17.89031  eV     1   --> A_1  L_1       
     e(  3 -  4) =     19.64853  eV     2   --> E    L_3       
     e(  5 -  6) =     22.18090  eV     2   --> E    L_3       
     e(  7 -  7) =     22.19208  eV     1   --> A_1  L_1       
     e(  8 -  8) =     25.66767  eV     1   --> A_1  L_1       
     e(  9 - 10) =     26.02410  eV     2   --> E    L_3       

 **************************************************************************

 **************************************************************************

                    xk=(  -0.06250,  -0.06250,   0.06250  )

     Band symmetry, C_3v (3m)   point group:

     e(  1 -  1) =     -3.30671  eV     1   --> A_1  L_1       
     e(  2 -  2) =     18.37969  eV     1   --> A_1  L_1       
     e(  3 -  4) =     19.77123  eV     2   --> E    L_3       
     e(  5 -  6) =     21.99146  eV     2   --> E    L_3       
     e(  7 -  7) =     22.13239  eV     1   --> A_1  L_1       
     e(  8 -  8) =     25.26638  eV     1   --> A_1  L_1       
     e(  9 - 10) =     26.23005  eV     2   --> E    L_3       

 **************************************************************************

 **************************************************************************

                    xk=(  -0.05000,  -0.05000,   0.05000  )

     Band symmetry, C_3v (3m)   point group:

     e(  1 -  1) =     -3.34466  eV     1   --> A_1  L_1       
     e(  2 -  2) =     18.85645  eV     1   --> A_1  L_1       
     e(  3 -  4) =     19.89098  eV     2   --> E    L_3       
     e(  5 -  6) =     21.81450  eV     2   --> E    L_3       
     e(  7 -  7) =     22.03284  eV     1   --> A_1  L_1       
     e(  8 -  8) =     24.91275  eV     1   --> A_1  L_1       
     e(  9 - 10) =     26.41548  eV     2   --> E    L_3       

 **************************************************************************

 **************************************************************************

                    xk=(  -0.03750,  -0.03750,   0.03750  )

     Band symmetry, C_3v (3m)   point group:

     e(  1 -  1) =     -3.37419  eV     1   --> A_1  L_1       
     e(  2 -  2) =     19.31112  eV     1   --> A_1  L_1       
     e(  3 -  4) =     20.00313  eV     2   --> E    L_3       
     e(  5 -  6) =     21.65834  eV     2   --> E    L_3       
     e(  7 -  7) =     21.88678  eV     1   --> A_1  L_1       
     e(  8 -  8) =     24.62293  eV     1   --> A_1  L_1       
     e(  9 - 10) =     26.57248  eV     2   --> E    L_3       

 **************************************************************************

 **************************************************************************

                    xk=(  -0.02500,  -0.02500,   0.02500  )

     Band symmetry, C_3v (3m)   point group:

     e(  1 -  1) =     -3.39529  eV     1   --> A_1  L_1       
     e(  2 -  2) =     19.72463  eV     1   --> A_1  L_1       
     e(  3 -  4) =     20.09879  eV     2   --> E    L_3       
     e(  5 -  6) =     21.53032  eV     2   --> E    L_3       
     e(  7 -  7) =     21.69914  eV     1   --> A_1  L_1       
     e(  8 -  8) =     24.41050  eV     1   --> A_1  L_1       
     e(  9 - 10) =     26.69268  eV     2   --> E    L_3       

 **************************************************************************

 **************************************************************************

                    xk=(  -0.01250,  -0.01250,   0.01250  )

     Band symmetry, C_3v (3m)   point group:

     e(  1 -  1) =     -3.40795  eV     1   --> A_1  L_1       
     e(  2 -  2) =     20.05170  eV     1   --> A_1  L_1       
     e(  3 -  4) =     20.16562  eV     2   --> E    L_3       
     e(  5 -  6) =     21.44342  eV     2   --> E    L_3       
     e(  7 -  7) =     21.50572  eV     1   --> A_1  L_1       
     e(  8 -  8) =     24.28252  eV     1   --> A_1  L_1       
     e(  9 - 10) =     26.76849  eV     2   --> E    L_3       

 **************************************************************************

 **************************************************************************

                    xk=(   0.00000,   0.00000,   0.00000  )

     point group O_h (m-3m) 
     there are 10 classes
     the character table:

       E     8C3   3C2   6C4   6C2'  i     8S6   3s_h  6S4   6s_d 
A_1g   1.00  1.00  1.00  1.00  1.00  1.00  1.00  1.00  1.00  1.00
A_2g   1.00  1.00  1.00 -1.00 -1.00  1.00  1.00  1.00 -1.00 -1.00
E_g    2.00 -1.00  2.00  0.00  0.00  2.00 -1.00  2.00  0.00  0.00
T_1g   3.00  0.00 -1.00  1.00 -1.00  3.00  0.00 -1.00  1.00 -1.00
T_2g   3.00  0.00 -1.00 -1.00  1.00  3.00  0.00 -1.00 -1.00  1.00
A_1u   1.00  1.00  1.00  1.00  1.00 -1.00 -1.00 -1.00 -1.00 -1.00
A_2u   1.00  1.00  1.00 -1.00 -1.00 -1.00 -1.00 -1.00  1.00  1.00
E_u    2.00 -1.00  2.00  0.00  0.00 -2.00  1.00 -2.00  0.00  0.00
T_1u   3.00  0.00 -1.00  1.00 -1.00 -3.00  0.00  1.00 -1.00  1.00
T_2u   3.00  0.00 -1.00 -1.00  1.00 -3.00  0.00  1.00  1.00 -1.00

     the symmetry operations in each class and the name of the first element:

     E        1
                                                                 
     8C3     17   19   20   18   24   21   22   23
                                                                 
     3C2      2    4    3
                                                                 
     6C4      7    8   15   16   12   11
                                                                 
     6C2'     5    6   14   13   10    9
                                                                 
     i       25
                                                                 
     8S6     41   43   44   42   48   45   46   47
                                                                 
     3s_h    26   28   27
                                                                 
     6S4     31   32   39   40   36   35
                                                                 
     6s_d    29   30   38   37   34   33
                                                                 

     Band symmetry, O_h (m-3m)  point group:

     e(  1 -  1) =     -3.41217  eV     1   --> A_1g G_1   G_1+
     e(  2 -  4) =     20.19010  eV     3   --> T_2g G_25' G_5+
     e(  5 -  7) =     21.41253  eV     3   --> T_1u G_15  G_4-
     e(  8 -  8) =     24.24003  eV     1   --> A_2u G_2'  G_2-
     e(  9 - 10) =     26.79445  eV     2   --> E_g  G_12  G_3+

 **************************************************************************

     BANDS        :      2.98s CPU      3.04s WALL


   This run was terminated on:  12:45: 5  18Nov2024            

=------------------------------------------------------------------------------=
   JOB DONE.
=------------------------------------------------------------------------------=
