
     Program PWSCF v.7.3 starts on 18Nov2024 at 12:43:49 

     This program is part of the open-source Quantum ESPRESSO suite
     for quantum simulation of materials; please cite
         "P. Giannozzi et al., J. Phys.:Condens. Matter 21 395502 (2009);
         "P. Giannozzi et al., J. Phys.:Condens. Matter 29 465901 (2017);
         "P. Giannozzi et al., J. Chem. Phys. 152 154105 (2020);
          URL http://www.quantum-espresso.org", 
     in publications or presentations arising from this work. More details at
     http://www.quantum-espresso.org/quote

     Serial version
     6322 MiB available memory on the printing compute node when the environment starts

     Waiting for input...
     Reading input from standard input

     Current dimensions of program PWSCF are:
     Max number of different atomic species (ntypx) = 10
     Max number of k-points (npk) =  40000
     Max angular momentum in pseudopotentials (lmaxx) =  4


     G-vector sticks info
     --------------------
     sticks:   dense  smooth     PW     G-vecs:    dense   smooth      PW
     Sum         313     313    109                 3839     3839     749

     Using Slab Decomposition



     bravais-lattice index     =            2
     lattice parameter (alat)  =       7.6534  a.u.
     unit-cell volume          =     112.0732 (a.u.)^3
     number of atoms/cell      =            1
     number of atomic types    =            1
     number of electrons       =         3.00
     number of Kohn-Sham states=            6
     kinetic-energy cutoff     =      40.0000  Ry
     charge density cutoff     =     160.0000  Ry
     scf convergence threshold =      1.0E-06
     mixing beta               =       0.7000
     number of iterations used =            8  plain     mixing
     Exchange-correlation= SLA  PW   NOGX NOGC
                           (   1   4   0   0   0   0   0)

     celldm(1)=   7.653391  celldm(2)=   0.000000  celldm(3)=   0.000000
     celldm(4)=   0.000000  celldm(5)=   0.000000  celldm(6)=   0.000000

     crystal axes: (cart. coord. in units of alat)
               a(1) = (  -0.500000   0.000000   0.500000 )  
               a(2) = (   0.000000   0.500000   0.500000 )  
               a(3) = (  -0.500000   0.500000   0.000000 )  

     reciprocal axes: (cart. coord. in units 2 pi/alat)
               b(1) = ( -1.000000 -1.000000  1.000000 )  
               b(2) = (  1.000000  1.000000  1.000000 )  
               b(3) = ( -1.000000  1.000000 -1.000000 )  


     PseudoPot. # 1 for Al read from file:
     ./PSEUDO/Al.LDA.upf
     MD5 check sum: ba9f5f198b9667a0d06c5b1d7daf412e
     Pseudo is Norm-conserving + core correction, Zval =  3.0
     Generated using ONCVPSP code by D. R. Hamann
     Using radial grid of 1854 points,  6 beta functions with: 
                l(1) =   0
                l(2) =   0
                l(3) =   1
                l(4) =   1
                l(5) =   2
                l(6) =   2

     atomic species   valence    mass     pseudopotential
     Al                3.00    26.98000     Al( 1.00)

     48 Sym. Ops., with inversion, found



   Cartesian axes

     site n.     atom                  positions (alat units)
         1        Al     tau(   1) = (   0.0000000   0.0000000   0.0000000  )

     number of k points=    29  Gaussian smearing, width (Ry)=  0.0200
                       cart. coord. in units 2pi/alat
        k(    1) = (   0.0000000   0.0000000   0.0000000), wk =   0.0039062
        k(    2) = (  -0.1250000   0.1250000  -0.1250000), wk =   0.0312500
        k(    3) = (  -0.2500000   0.2500000  -0.2500000), wk =   0.0312500
        k(    4) = (  -0.3750000   0.3750000  -0.3750000), wk =   0.0312500
        k(    5) = (   0.5000000  -0.5000000   0.5000000), wk =   0.0156250
        k(    6) = (   0.0000000   0.2500000   0.0000000), wk =   0.0234375
        k(    7) = (  -0.1250000   0.3750000  -0.1250000), wk =   0.0937500
        k(    8) = (  -0.2500000   0.5000000  -0.2500000), wk =   0.0937500
        k(    9) = (   0.6250000  -0.3750000   0.6250000), wk =   0.0937500
        k(   10) = (   0.5000000  -0.2500000   0.5000000), wk =   0.0937500
        k(   11) = (   0.3750000  -0.1250000   0.3750000), wk =   0.0937500
        k(   12) = (   0.2500000   0.0000000   0.2500000), wk =   0.0468750
        k(   13) = (   0.0000000   0.5000000   0.0000000), wk =   0.0234375
        k(   14) = (  -0.1250000   0.6250000  -0.1250000), wk =   0.0937500
        k(   15) = (   0.7500000  -0.2500000   0.7500000), wk =   0.0937500
        k(   16) = (   0.6250000  -0.1250000   0.6250000), wk =   0.0937500
        k(   17) = (   0.5000000   0.0000000   0.5000000), wk =   0.0468750
        k(   18) = (   0.0000000   0.7500000   0.0000000), wk =   0.0234375
        k(   19) = (   0.8750000  -0.1250000   0.8750000), wk =   0.0937500
        k(   20) = (   0.7500000   0.0000000   0.7500000), wk =   0.0468750
        k(   21) = (   0.0000000  -1.0000000   0.0000000), wk =   0.0117188
        k(   22) = (  -0.2500000   0.5000000   0.0000000), wk =   0.0937500
        k(   23) = (   0.6250000  -0.3750000   0.8750000), wk =   0.1875000
        k(   24) = (   0.5000000  -0.2500000   0.7500000), wk =   0.0937500
        k(   25) = (   0.7500000  -0.2500000   1.0000000), wk =   0.0937500
        k(   26) = (   0.6250000  -0.1250000   0.8750000), wk =   0.1875000
        k(   27) = (   0.5000000   0.0000000   0.7500000), wk =   0.0937500
        k(   28) = (  -0.2500000  -1.0000000   0.0000000), wk =   0.0468750
        k(   29) = (  -0.5000000  -1.0000000   0.0000000), wk =   0.0234375

     Dense  grid:     3839 G-vectors     FFT dimensions: (  24,  24,  24)

     Estimated max dynamical RAM per process >       5.19 MB

     Initial potential from superposition of free atoms

     starting charge       2.9978, renormalised to       3.0000
     Starting wfcs are    4 randomized atomic wfcs +    2 random wfcs

     total cpu time spent up to now is        0.4 secs

     Self-consistent Calculation

     iteration #  1     ecut=    40.00 Ry     beta= 0.70
     Davidson diagonalization with overlap
     ethr =  1.00E-02,  avg # of iterations =  5.8

     Threshold (ethr) on eigenvalues was too large:
     Diagonalizing with lowered threshold

     Davidson diagonalization with overlap
     ethr =  1.86E-04,  avg # of iterations =  3.9

     total cpu time spent up to now is        0.8 secs

     total energy              =      -4.72563758 Ry
     estimated scf accuracy    <       0.00551387 Ry

     iteration #  2     ecut=    40.00 Ry     beta= 0.70
     Davidson diagonalization with overlap
     ethr =  1.84E-04,  avg # of iterations =  1.1

     total cpu time spent up to now is        0.9 secs

     total energy              =      -4.72561366 Ry
     estimated scf accuracy    <       0.00036059 Ry

     iteration #  3     ecut=    40.00 Ry     beta= 0.70
     Davidson diagonalization with overlap
     c_bands:  1 eigenvalues not converged
     ethr =  1.20E-05,  avg # of iterations =  3.8

     total cpu time spent up to now is        1.1 secs

     End of self-consistent calculation

          k = 0.0000 0.0000 0.0000 (   531 PWs)   bands (ev):

    -3.4126  20.1901  20.1904  21.4116  21.4116  21.4117

          k =-0.1250 0.1250-0.1250 (   495 PWs)   bands (ev):

    -2.9912  15.8895  19.1795  19.1795  22.2010  22.9819

          k =-0.2500 0.2500-0.2500 (   483 PWs)   bands (ev):

    -1.7344  11.0586  18.4044  18.4046  21.8964  22.1936

          k =-0.3750 0.3750-0.3750 (   477 PWs)   bands (ev):

     0.3366   6.7847  18.3062  18.3063  20.2495  20.2495

          k = 0.5000-0.5000 0.5000 (   476 PWs)   bands (ev):

     3.1244   3.2570  18.7894  18.7894  19.0645  19.0646

          k = 0.0000 0.2500 0.0000 (   495 PWs)   bands (ev):

    -2.8510  17.4274  17.4276  17.8045  20.2935  22.1746

          k =-0.1250 0.3750-0.1250 (   484 PWs)   bands (ev):

    -1.8735  12.9089  16.3693  17.9357  19.0968  21.5909

          k =-0.2500 0.5000-0.2500 (   471 PWs)   bands (ev):

    -0.0755   8.4744  16.0226  16.7789  17.7412  23.6668

          k = 0.6250-0.3750 0.6250 (   473 PWs)   bands (ev):

     2.5119   4.6650  15.1571  16.3896  18.1829  22.1799

          k = 0.5000-0.2500 0.5000 (   477 PWs)   bands (ev):

     1.5649   5.8542  14.2799  17.4682  19.3574  21.3550

          k = 0.3750-0.1250 0.3750 (   485 PWs)   bands (ev):

    -0.7643   9.8683  14.1765  19.2268  21.2254  21.2308

          k = 0.2500 0.0000 0.2500 (   489 PWs)   bands (ev):

    -2.2916  14.0634  15.2261  21.2772  21.3571  22.8703

          k = 0.0000 0.5000 0.0000 (   480 PWs)   bands (ev):

    -1.1794  15.0542  15.0544  15.1617  15.8315  18.4398

          k =-0.1250 0.6250-0.1250 (   478 PWs)   bands (ev):

     0.3353  10.8537  13.1773  14.4610  15.9696  19.8742

          k = 0.7500-0.2500 0.7500 (   477 PWs)   bands (ev):

     2.6409   6.8982  11.2607  14.5856  16.3017  23.5151

          k = 0.6250-0.1250 0.6250 (   479 PWs)   bands (ev):

     3.5856   5.6847  10.1404  15.4281  17.2832  25.0695

          k = 0.5000 0.0000 0.5000 (   481 PWs)   bands (ev):

     1.0200   8.9005  10.3346  16.9862  18.9832  24.4974

          k = 0.0000 0.7500 0.0000 (   472 PWs)   bands (ev):

     1.5585  10.2096  13.5150  13.6235  13.6235  17.0272

          k = 0.8750-0.1250 0.8750 (   474 PWs)   bands (ev):

     3.5520   8.0132   9.8388  13.5062  14.9173  18.9468

          k = 0.7500 0.0000 0.7500 (   478 PWs)   bands (ev):

     5.7980   6.3245   7.1891  14.1070  15.7833  23.1075

          k = 0.0000-1.0000 0.0000 (   468 PWs)   bands (ev):

     4.7665   6.0305  12.9611  13.1468  13.1468  16.5240

          k =-0.2500 0.5000 0.0000 (   482 PWs)   bands (ev):

    -0.6264  11.4896  12.8192  16.3174  19.7013  21.3308

          k = 0.6250-0.3750 0.8750 (   481 PWs)   bands (ev):

     1.4277   7.7846  12.1730  14.1960  20.2802  22.3316

          k = 0.5000-0.2500 0.7500 (   476 PWs)   bands (ev):

     4.1640   4.3456  12.6167  12.9644  20.7633  21.2528

          k = 0.7500-0.2500 1.0000 (   471 PWs)   bands (ev):

     2.1007   9.9381  10.6519  11.4132  18.2213  20.0987

          k = 0.6250-0.1250 0.8750 (   478 PWs)   bands (ev):

     4.6145   6.7305   9.0824  11.1950  19.3627  23.3931

          k = 0.5000 0.0000 0.7500 (   481 PWs)   bands (ev):

     3.7150   7.3483   8.7529  12.3009  20.5508  23.8012

          k =-0.2500-1.0000 0.0000 (   478 PWs)   bands (ev):

     5.2820   6.5736   9.4203  10.8333  17.7161  19.6506

          k =-0.5000-1.0000 0.0000 (   488 PWs)   bands (ev):

     6.8313   6.8313   7.8750   8.5919  23.3327  23.3930

     the Fermi energy is     7.6057 ev

!    total energy              =      -4.72563281 Ry
     estimated scf accuracy    <       0.00000072 Ry
     smearing contrib. (-TS)   =      -0.00103481 Ry
     internal energy E=F+TS    =      -4.72459800 Ry

     The total energy is F=E-TS. E is the sum of the following terms:
     one-electron contribution =       2.88049670 Ry
     hartree contribution      =       0.00740078 Ry
     xc contribution           =      -2.22092996 Ry
     ewald contribution        =      -5.39156552 Ry

     convergence has been achieved in   3 iterations

     Forces acting on atoms (cartesian axes, Ry/au):

     atom    1 type  1   force =     0.00000000    0.00000000    0.00000000

     Total force =     0.000000     Total SCF correction =     0.000000


     Computing stress (Cartesian axis) and pressure

          total   stress  (Ry/bohr**3)                   (kbar)     P=      -39.29
  -0.00026709   0.00000000   0.00000000          -39.29        0.00        0.00
   0.00000000  -0.00026709   0.00000000            0.00      -39.29        0.00
   0.00000000   0.00000000  -0.00026709            0.00        0.00      -39.29


     Writing all to output data dir ./tmp/allu.save/ :
     XML data file, charge density, pseudopotentials, collected wavefunctions

     init_run     :      0.32s CPU      0.35s WALL (       1 calls)
     electrons    :      0.61s CPU      0.63s WALL (       1 calls)
     forces       :      0.02s CPU      0.02s WALL (       1 calls)
     stress       :      0.08s CPU      0.09s WALL (       1 calls)

     Called by init_run:
     wfcinit      :      0.13s CPU      0.13s WALL (       1 calls)
     potinit      :      0.02s CPU      0.03s WALL (       1 calls)
     hinit0       :      0.17s CPU      0.18s WALL (       1 calls)

     Called by electrons:
     c_bands      :      0.53s CPU      0.54s WALL (       4 calls)
     sum_band     :      0.08s CPU      0.08s WALL (       4 calls)
     v_of_rho     :      0.00s CPU      0.01s WALL (       4 calls)
     mix_rho      :      0.00s CPU      0.00s WALL (       4 calls)

     Called by c_bands:
     init_us_2    :      0.03s CPU      0.03s WALL (     319 calls)
     init_us_2:cp :      0.03s CPU      0.03s WALL (     319 calls)
     cegterg      :      0.49s CPU      0.50s WALL (     116 calls)

     Called by *egterg:
     cdiaghg      :      0.02s CPU      0.02s WALL (     508 calls)
     h_psi        :      0.52s CPU      0.53s WALL (     566 calls)
     g_psi        :      0.00s CPU      0.00s WALL (     421 calls)

     Called by h_psi:
     h_psi:calbec :      0.03s CPU      0.03s WALL (     566 calls)
     vloc_psi     :      0.47s CPU      0.47s WALL (     566 calls)
     add_vuspsi   :      0.02s CPU      0.02s WALL (     566 calls)

     General routines
     calbec       :      0.04s CPU      0.04s WALL (     711 calls)
     fft          :      0.12s CPU      0.12s WALL (      20 calls)
     ffts         :      0.00s CPU      0.00s WALL (       4 calls)
     fftw         :      0.46s CPU      0.47s WALL (    5164 calls)


     PWSCF        :      1.07s CPU      1.18s WALL


   This run was terminated on:  12:43:51  18Nov2024            

=------------------------------------------------------------------------------=
   JOB DONE.
=------------------------------------------------------------------------------=
