
     Program PWSCF v.7.3 starts on 18Nov2024 at 13:33:23 

     This program is part of the open-source Quantum ESPRESSO suite
     for quantum simulation of materials; please cite
         "P. Giannozzi et al., J. Phys.:Condens. Matter 21 395502 (2009);
         "P. Giannozzi et al., J. Phys.:Condens. Matter 29 465901 (2017);
         "P. Giannozzi et al., J. Chem. Phys. 152 154105 (2020);
          URL http://www.quantum-espresso.org", 
     in publications or presentations arising from this work. More details at
     http://www.quantum-espresso.org/quote

     Serial version
     6059 MiB available memory on the printing compute node when the environment starts

     Waiting for input...
     Reading input from standard input

     Current dimensions of program PWSCF are:
     Max number of different atomic species (ntypx) = 10
     Max number of k-points (npk) =  40000
     Max angular momentum in pseudopotentials (lmaxx) =  4

     Atomic positions and unit cell read from directory:
     ./tmp/neon.save/



     G-vector sticks info
     --------------------
     sticks:   dense  smooth     PW     G-vecs:    dense   smooth      PW
     Sum         769     769    241                14361    14361    2421

     Using Slab Decomposition



     bravais-lattice index     =            2
     lattice parameter (alat)  =       8.4300  a.u.
     unit-cell volume          =     149.7693 (a.u.)^3
     number of atoms/cell      =            1
     number of atomic types    =            1
     number of electrons       =         8.00
     number of Kohn-Sham states=            8
     kinetic-energy cutoff     =      80.0000  Ry
     charge density cutoff     =     320.0000  Ry
     Exchange-correlation= SLA  PW   NOGX NOGC
                           (   1   4   0   0   0   0   0)

     celldm(1)=   8.430000  celldm(2)=   0.000000  celldm(3)=   0.000000
     celldm(4)=   0.000000  celldm(5)=   0.000000  celldm(6)=   0.000000

     crystal axes: (cart. coord. in units of alat)
               a(1) = (  -0.500000   0.000000   0.500000 )  
               a(2) = (   0.000000   0.500000   0.500000 )  
               a(3) = (  -0.500000   0.500000   0.000000 )  

     reciprocal axes: (cart. coord. in units 2 pi/alat)
               b(1) = ( -1.000000 -1.000000  1.000000 )  
               b(2) = (  1.000000  1.000000  1.000000 )  
               b(3) = ( -1.000000  1.000000 -1.000000 )  


     PseudoPot. # 1 for Ne read from file:
     ./PSEUDO/Ne.LDA.upf
     MD5 check sum: 4fe887f722f2cdc4cea4a66ab59ea4d3
     Pseudo is Norm-conserving, Zval =  8.0
     Generated using ONCVPSP code by D. R. Hamann
     Using radial grid of  750 points,  4 beta functions with: 
                l(1) =   0
                l(2) =   0
                l(3) =   1
                l(4) =   1

     atomic species   valence    mass     pseudopotential
     Ne                8.00    20.18000     Ne( 1.00)

     48 Sym. Ops., with inversion, found



   Cartesian axes

     site n.     atom                  positions (alat units)
         1        Ne     tau(   1) = (   0.0000000   0.0000000   0.0000000  )

     number of k points=   161

     Number of k-points >= 100: set verbosity='high' to print them.

     Dense  grid:    14361 G-vectors     FFT dimensions: (  36,  36,  36)

     Estimated max dynamical RAM per process >       6.84 MB

     The potential is recalculated from file :
     ./tmp/neon.save/charge-density

     Starting wfcs are    4 randomized atomic wfcs +    4 random wfcs

     Band Structure Calculation
     Davidson diagonalization with overlap

     ethr =  1.25E-08,  avg # of iterations = 14.7

     total cpu time spent up to now is       11.5 secs

     End of band structure calculation

     Number of k-points >= 100: set verbosity='high' to print the bands.

     Writing all to output data dir ./tmp/neon.save/ :
     XML data file, pseudopotentials, collected wavefunctions

     init_run     :      0.26s CPU      0.27s WALL (       1 calls)
     electrons    :     11.15s CPU     11.23s WALL (       1 calls)

     Called by init_run:
     wfcinit      :      0.00s CPU      0.00s WALL (       1 calls)
     potinit      :      0.00s CPU      0.01s WALL (       1 calls)
     hinit0       :      0.22s CPU      0.23s WALL (       1 calls)

     Called by electrons:
     c_bands      :     11.15s CPU     11.23s WALL (       1 calls)
     v_of_rho     :      0.00s CPU      0.01s WALL (       1 calls)

     Called by c_bands:
     init_us_2    :      0.04s CPU      0.04s WALL (     161 calls)
     init_us_2:cp :      0.04s CPU      0.04s WALL (     161 calls)
     cegterg      :      9.85s CPU      9.91s WALL (     165 calls)

     Called by *egterg:
     cdiaghg      :      0.20s CPU      0.20s WALL (    2526 calls)
     h_psi        :      8.55s CPU      8.62s WALL (    2691 calls)
     g_psi        :      0.07s CPU      0.07s WALL (    2365 calls)

     Called by h_psi:
     h_psi:calbec :      0.29s CPU      0.29s WALL (    2691 calls)
     vloc_psi     :      7.97s CPU      8.04s WALL (    2691 calls)
     add_vuspsi   :      0.24s CPU      0.24s WALL (    2691 calls)

     General routines
     calbec       :      0.28s CPU      0.28s WALL (    2691 calls)
     fft          :      0.16s CPU      0.17s WALL (       3 calls)
     fftw         :      6.78s CPU      6.84s WALL (   24092 calls)
     davcio       :      0.02s CPU      0.03s WALL (     322 calls)


     PWSCF        :     11.47s CPU     11.63s WALL


   This run was terminated on:  13:33:35  18Nov2024            

=------------------------------------------------------------------------------=
   JOB DONE.
=------------------------------------------------------------------------------=
