
     Program BANDS v.7.3 starts on 18Nov2024 at 13:33:36 

     This program is part of the open-source Quantum ESPRESSO suite
     for quantum simulation of materials; please cite
         "P. Giannozzi et al., J. Phys.:Condens. Matter 21 395502 (2009);
         "P. Giannozzi et al., J. Phys.:Condens. Matter 29 465901 (2017);
         "P. Giannozzi et al., J. Chem. Phys. 152 154105 (2020);
          URL http://www.quantum-espresso.org", 
     in publications or presentations arising from this work. More details at
     http://www.quantum-espresso.org/quote

     Serial version
     6056 MiB available memory on the printing compute node when the environment starts


     Reading xml data from directory:

     ./tmp/neon.save/

     IMPORTANT: XC functional enforced from input :
     Exchange-correlation= PW
                           (   1   4   0   0   0   0   0)
     Any further DFT definition will be discarded
     Please, verify this is what you really want


     G-vector sticks info
     --------------------
     sticks:   dense  smooth     PW     G-vecs:    dense   smooth      PW
     Sum         769     769    241                14361    14361    2421

     Using Slab Decomposition

     Reading collected, re-writing distributed wavefunctions
     high-symmetry point:  0.0000 0.0000 0.0000   x coordinate   0.0000
     high-symmetry point:  0.0000 0.0000 1.0000   x coordinate   1.0000
     high-symmetry point: -0.5000 0.0000 1.0000   x coordinate   1.5000
     high-symmetry point: -0.5000-0.5000 0.5000   x coordinate   2.2071
     high-symmetry point:  0.0000 0.0000 0.0000   x coordinate   3.0731

     Plottable bands (eV) written to file neon.bands.dat.gnu
     Bands written to file neon.bands.dat

 **************************************************************************

                    xk=(   0.00000,   0.00000,   0.00000  )

     point group O_h (m-3m) 
     there are 10 classes
     the character table:

       E     8C3   3C2   6C4   6C2'  i     8S6   3s_h  6S4   6s_d 
A_1g   1.00  1.00  1.00  1.00  1.00  1.00  1.00  1.00  1.00  1.00
A_2g   1.00  1.00  1.00 -1.00 -1.00  1.00  1.00  1.00 -1.00 -1.00
E_g    2.00 -1.00  2.00  0.00  0.00  2.00 -1.00  2.00  0.00  0.00
T_1g   3.00  0.00 -1.00  1.00 -1.00  3.00  0.00 -1.00  1.00 -1.00
T_2g   3.00  0.00 -1.00 -1.00  1.00  3.00  0.00 -1.00 -1.00  1.00
A_1u   1.00  1.00  1.00  1.00  1.00 -1.00 -1.00 -1.00 -1.00 -1.00
A_2u   1.00  1.00  1.00 -1.00 -1.00 -1.00 -1.00 -1.00  1.00  1.00
E_u    2.00 -1.00  2.00  0.00  0.00 -2.00  1.00 -2.00  0.00  0.00
T_1u   3.00  0.00 -1.00  1.00 -1.00 -3.00  0.00  1.00 -1.00  1.00
T_2u   3.00  0.00 -1.00 -1.00  1.00 -3.00  0.00  1.00  1.00 -1.00

     the symmetry operations in each class and the name of the first element:

     E        1
                                                                 
     8C3     17   19   20   18   24   21   22   23
                                                                 
     3C2      2    4    3
                                                                 
     6C4      7    8   15   16   12   11
                                                                 
     6C2'     5    6   14   13   10    9
                                                                 
     i       25
                                                                 
     8S6     41   43   44   42   48   45   46   47
                                                                 
     3s_h    26   28   27
                                                                 
     6S4     31   32   39   40   36   35
                                                                 
     6s_d    29   30   38   37   34   33
                                                                 

     Band symmetry, O_h (m-3m)  point group:

     e(  1 -  1) =    -32.38056  eV     1   --> A_1g G_1   G_1+
     e(  2 -  4) =     -9.43696  eV     3   --> T_1u G_15  G_4-
     e(  5 -  5) =      1.97903  eV     1   --> A_1g G_1   G_1+
     e(  6 -  8) =     19.95146  eV     3   --> T_2g G_25' G_5+

 **************************************************************************

 **************************************************************************

                    xk=(   0.00000,   0.00000,   0.02500  )

     point group C_4v (4mm) 
     there are  5 classes
     the character table:

       E     2C4   C2    2s_v  2s_d 
A_1    1.00  1.00  1.00  1.00  1.00
A_2    1.00  1.00  1.00 -1.00 -1.00
B_1    1.00 -1.00  1.00  1.00 -1.00
B_2    1.00 -1.00  1.00 -1.00  1.00
E      2.00  0.00 -2.00  0.00  0.00

     the symmetry operations in each class and the name of the first element:

     E        1
                                                                 
     2C4      3    4
                                                                 
     C2       2
                                                                 
     2s_v     5    6
                                                                 
     2s_d     7    8
                                                                 

     Band symmetry, C_4v (4mm)  point group:

     e(  1 -  1) =    -32.38038  eV     1   --> A_1  G_1 D_1   
     e(  2 -  2) =     -9.43822  eV     1   --> A_1  G_1 D_1   
     e(  3 -  4) =     -9.43729  eV     2   --> E    G_5 D_5   
     e(  5 -  5) =      1.98492  eV     1   --> A_1  G_1 D_1   
     e(  6 -  6) =     19.88160  eV     1   --> B_2  G_4 D_2'  
     e(  7 -  8) =     19.93732  eV     2   --> E    G_5 D_5   

 **************************************************************************

 **************************************************************************

                    xk=(   0.00000,   0.00000,   0.05000  )

     Band symmetry, C_4v (4mm)  point group:

     e(  1 -  1) =    -32.37985  eV     1   --> A_1  G_1 D_1   
     e(  2 -  2) =     -9.44199  eV     1   --> A_1  G_1 D_1   
     e(  3 -  4) =     -9.43829  eV     2   --> E    G_5 D_5   
     e(  5 -  5) =      2.00256  eV     1   --> A_1  G_1 D_1   
     e(  6 -  6) =     19.69980  eV     1   --> B_2  G_4 D_2'  
     e(  7 -  8) =     19.89582  eV     2   --> E    G_5 D_5   

 **************************************************************************

 **************************************************************************

                    xk=(   0.00000,   0.00000,   0.07500  )

     Band symmetry, C_4v (4mm)  point group:

     e(  1 -  1) =    -32.37897  eV     1   --> A_1  G_1 D_1   
     e(  2 -  2) =     -9.44823  eV     1   --> A_1  G_1 D_1   
     e(  3 -  4) =     -9.43996  eV     2   --> E    G_5 D_5   
     e(  5 -  5) =      2.03189  eV     1   --> A_1  G_1 D_1   
     e(  6 -  6) =     19.45427  eV     1   --> B_2  G_4 D_2'  
     e(  7 -  8) =     19.82957  eV     2   --> E    G_5 D_5   

 **************************************************************************

 **************************************************************************

                    xk=(   0.00000,   0.00000,   0.10000  )

     Band symmetry, C_4v (4mm)  point group:

     e(  1 -  1) =    -32.37774  eV     1   --> A_1  G_1 D_1   
     e(  2 -  2) =     -9.45687  eV     1   --> A_1  G_1 D_1   
     e(  3 -  4) =     -9.44228  eV     2   --> E    G_5 D_5   
     e(  5 -  5) =      2.07283  eV     1   --> A_1  G_1 D_1   
     e(  6 -  6) =     19.17815  eV     1   --> B_2  G_4 D_2'  
     e(  7 -  8) =     19.74229  eV     2   --> E    G_5 D_5   

 **************************************************************************

 **************************************************************************

                    xk=(   0.00000,   0.00000,   0.12500  )

     Band symmetry, C_4v (4mm)  point group:

     e(  1 -  1) =    -32.37618  eV     1   --> A_1  G_1 D_1   
     e(  2 -  2) =     -9.46782  eV     1   --> A_1  G_1 D_1   
     e(  3 -  4) =     -9.44523  eV     2   --> E    G_5 D_5   
     e(  5 -  5) =      2.12524  eV     1   --> A_1  G_1 D_1   
     e(  6 -  6) =     18.88907  eV     1   --> B_2  G_4 D_2'  
     e(  7 -  8) =     19.63813  eV     2   --> E    G_5 D_5   

 **************************************************************************

 **************************************************************************

                    xk=(   0.00000,   0.00000,   0.15000  )

     Band symmetry, C_4v (4mm)  point group:

     e(  1 -  1) =    -32.37429  eV     1   --> A_1  G_1 D_1   
     e(  2 -  2) =     -9.48095  eV     1   --> A_1  G_1 D_1   
     e(  3 -  4) =     -9.44881  eV     2   --> E    G_5 D_5   
     e(  5 -  5) =      2.18895  eV     1   --> A_1  G_1 D_1   
     e(  6 -  6) =     18.59612  eV     1   --> B_2  G_4 D_2'  
     e(  7 -  8) =     19.52117  eV     2   --> E    G_5 D_5   

 **************************************************************************

 **************************************************************************

                    xk=(   0.00000,   0.00000,   0.17500  )

     Band symmetry, C_4v (4mm)  point group:

     e(  1 -  1) =    -32.37208  eV     1   --> A_1  G_1 D_1   
     e(  2 -  2) =     -9.49612  eV     1   --> A_1  G_1 D_1   
     e(  3 -  4) =     -9.45298  eV     2   --> E    G_5 D_5   
     e(  5 -  5) =      2.26377  eV     1   --> A_1  G_1 D_1   
     e(  6 -  6) =     18.30421  eV     1   --> B_2  G_4 D_2'  
     e(  7 -  8) =     19.39509  eV     2   --> E    G_5 D_5   

 **************************************************************************

 **************************************************************************

                    xk=(   0.00000,   0.00000,   0.20000  )

     Band symmetry, C_4v (4mm)  point group:

     e(  1 -  1) =    -32.36957  eV     1   --> A_1  G_1 D_1   
     e(  2 -  2) =     -9.51318  eV     1   --> A_1  G_1 D_1   
     e(  3 -  4) =     -9.45772  eV     2   --> E    G_5 D_5   
     e(  5 -  5) =      2.34948  eV     1   --> A_1  G_1 D_1   
     e(  6 -  6) =     18.01616  eV     1   --> B_2  G_4 D_2'  
     e(  7 -  8) =     19.26304  eV     2   --> E    G_5 D_5   

 **************************************************************************

 **************************************************************************

                    xk=(   0.00000,   0.00000,   0.22500  )

     Band symmetry, C_4v (4mm)  point group:

     e(  1 -  1) =    -32.36678  eV     1   --> A_1  G_1 D_1   
     e(  2 -  2) =     -9.53195  eV     1   --> A_1  G_1 D_1   
     e(  3 -  4) =     -9.46301  eV     2   --> E    G_5 D_5   
     e(  5 -  5) =      2.44582  eV     1   --> A_1  G_1 D_1   
     e(  6 -  6) =     17.73366  eV     1   --> B_2  G_4 D_2'  
     e(  7 -  8) =     19.12760  eV     2   --> E    G_5 D_5   

 **************************************************************************

 **************************************************************************

                    xk=(   0.00000,   0.00000,   0.25000  )

     Band symmetry, C_4v (4mm)  point group:

     e(  1 -  1) =    -32.36371  eV     1   --> A_1  G_1 D_1   
     e(  2 -  2) =     -9.55224  eV     1   --> A_1  G_1 D_1   
     e(  3 -  4) =     -9.46880  eV     2   --> E    G_5 D_5   
     e(  5 -  5) =      2.55253  eV     1   --> A_1  G_1 D_1   
     e(  6 -  6) =     17.45779  eV     1   --> B_2  G_4 D_2'  
     e(  7 -  8) =     18.99087  eV     2   --> E    G_5 D_5   

 **************************************************************************

 **************************************************************************

                    xk=(   0.00000,   0.00000,   0.27500  )

     Band symmetry, C_4v (4mm)  point group:

     e(  1 -  1) =    -32.36040  eV     1   --> A_1  G_1 D_1   
     e(  2 -  2) =     -9.57388  eV     1   --> A_1  G_1 D_1   
     e(  3 -  4) =     -9.47507  eV     2   --> E    G_5 D_5   
     e(  5 -  5) =      2.66932  eV     1   --> A_1  G_1 D_1   
     e(  6 -  6) =     17.18928  eV     1   --> B_2  G_4 D_2'  
     e(  7 -  8) =     18.85449  eV     2   --> E    G_5 D_5   

 **************************************************************************

 **************************************************************************

                    xk=(   0.00000,   0.00000,   0.30000  )

     Band symmetry, C_4v (4mm)  point group:

     e(  1 -  1) =    -32.35686  eV     1   --> A_1  G_1 D_1   
     e(  2 -  2) =     -9.59665  eV     1   --> A_1  G_1 D_1   
     e(  3 -  4) =     -9.48177  eV     2   --> E    G_5 D_5   
     e(  5 -  5) =      2.79589  eV     1   --> A_1  G_1 D_1   
     e(  6 -  6) =     16.92860  eV     1   --> B_2  G_4 D_2'  
     e(  7 -  8) =     18.71975  eV     2   --> E    G_5 D_5   

 **************************************************************************

 **************************************************************************

                    xk=(   0.00000,   0.00000,   0.32500  )

     Band symmetry, C_4v (4mm)  point group:

     e(  1 -  1) =    -32.35311  eV     1   --> A_1  G_1 D_1   
     e(  2 -  2) =     -9.62035  eV     1   --> A_1  G_1 D_1   
     e(  3 -  4) =     -9.48886  eV     2   --> E    G_5 D_5   
     e(  5 -  5) =      2.93193  eV     1   --> A_1  G_1 D_1   
     e(  6 -  6) =     16.67613  eV     1   --> B_2  G_4 D_2'  
     e(  7 -  8) =     18.58767  eV     2   --> E    G_5 D_5   

 **************************************************************************

 **************************************************************************

                    xk=(   0.00000,   0.00000,   0.35000  )

     Band symmetry, C_4v (4mm)  point group:

     e(  1 -  1) =    -32.34917  eV     1   --> A_1  G_1 D_1   
     e(  2 -  2) =     -9.64478  eV     1   --> A_1  G_1 D_1   
     e(  3 -  4) =     -9.49631  eV     2   --> E    G_5 D_5   
     e(  5 -  5) =      3.07711  eV     1   --> A_1  G_1 D_1   
     e(  6 -  6) =     16.43209  eV     1   --> B_2  G_4 D_2'  
     e(  7 -  8) =     18.45902  eV     2   --> E    G_5 D_5   

 **************************************************************************

 **************************************************************************

                    xk=(   0.00000,   0.00000,   0.37500  )

     Band symmetry, C_4v (4mm)  point group:

     e(  1 -  1) =    -32.34508  eV     1   --> A_1  G_1 D_1   
     e(  2 -  2) =     -9.66976  eV     1   --> A_1  G_1 D_1   
     e(  3 -  4) =     -9.50405  eV     2   --> E    G_5 D_5   
     e(  5 -  5) =      3.23110  eV     1   --> A_1  G_1 D_1   
     e(  6 -  6) =     16.19669  eV     1   --> B_2  G_4 D_2'  
     e(  7 -  7) =     18.26838  eV     1   --> A_1  G_1 D_1   
     e(  8 -  8) =     18.33440  eV     1   -->   ?

 **************************************************************************

 **************************************************************************

                    xk=(   0.00000,   0.00000,   0.40000  )

     Band symmetry, C_4v (4mm)  point group:

     e(  1 -  1) =    -32.34086  eV     1   --> A_1  G_1 D_1   
     e(  2 -  2) =     -9.69507  eV     1   --> A_1  G_1 D_1   
     e(  3 -  4) =     -9.51205  eV     2   --> E    G_5 D_5   
     e(  5 -  5) =      3.39359  eV     1   --> A_1  G_1 D_1   
     e(  6 -  6) =     15.97007  eV     1   --> B_2  G_4 D_2'  
     e(  7 -  7) =     17.82550  eV     1   --> A_1  G_1 D_1   
     e(  8 -  8) =     18.21426  eV     1   -->   ?

 **************************************************************************

 **************************************************************************

                    xk=(   0.00000,   0.00000,   0.42500  )

     Band symmetry, C_4v (4mm)  point group:

     e(  1 -  1) =    -32.33652  eV     1   --> A_1  G_1 D_1   
     e(  2 -  2) =     -9.72054  eV     1   --> A_1  G_1 D_1   
     e(  3 -  4) =     -9.52026  eV     2   --> E    G_5 D_5   
     e(  5 -  5) =      3.56424  eV     1   --> A_1  G_1 D_1   
     e(  6 -  6) =     15.75233  eV     1   --> B_2  G_4 D_2'  
     e(  7 -  7) =     17.38908  eV     1   --> A_1  G_1 D_1   
     e(  8 -  8) =     18.09893  eV     1   -->   ?

 **************************************************************************

 **************************************************************************

                    xk=(   0.00000,   0.00000,   0.45000  )

     Band symmetry, C_4v (4mm)  point group:

     e(  1 -  1) =    -32.33211  eV     1   --> A_1  G_1 D_1   
     e(  2 -  2) =     -9.74598  eV     1   --> A_1  G_1 D_1   
     e(  3 -  4) =     -9.52862  eV     2   --> E    G_5 D_5   
     e(  5 -  5) =      3.74273  eV     1   --> A_1  G_1 D_1   
     e(  6 -  6) =     15.54356  eV     1   --> B_2  G_4 D_2'  
     e(  7 -  7) =     16.95941  eV     1   --> A_1  G_1 D_1   
     e(  8 -  8) =     17.98865  eV     1   -->   ?

 **************************************************************************

 **************************************************************************

                    xk=(   0.00000,   0.00000,   0.47500  )

     Band symmetry, C_4v (4mm)  point group:

     e(  1 -  1) =    -32.32764  eV     1   --> A_1  G_1 D_1   
     e(  2 -  2) =     -9.77124  eV     1   --> A_1  G_1 D_1   
     e(  3 -  4) =     -9.53709  eV     2   --> E    G_5 D_5   
     e(  5 -  5) =      3.92873  eV     1   --> A_1  G_1 D_1   
     e(  6 -  6) =     15.34383  eV     1   --> B_2  G_4 D_2'  
     e(  7 -  7) =     16.53668  eV     1   --> A_1  G_1 D_1   
     e(  8 -  8) =     17.88359  eV     1   -->   ?

 **************************************************************************

 **************************************************************************

                    xk=(   0.00000,   0.00000,   0.50000  )

     Band symmetry, C_4v (4mm)  point group:

     e(  1 -  1) =    -32.32314  eV     1   --> A_1  G_1 D_1   
     e(  2 -  2) =     -9.79614  eV     1   --> A_1  G_1 D_1   
     e(  3 -  4) =     -9.54561  eV     2   --> E    G_5 D_5   
     e(  5 -  5) =      4.12192  eV     1   --> A_1  G_1 D_1   
     e(  6 -  6) =     15.15320  eV     1   --> B_2  G_4 D_2'  
     e(  7 -  7) =     16.12104  eV     1   --> A_1  G_1 D_1   
     e(  8 -  8) =     17.78386  eV     1   -->   ?

 **************************************************************************

 **************************************************************************

                    xk=(   0.00000,   0.00000,   0.52500  )

     Band symmetry, C_4v (4mm)  point group:

     e(  1 -  1) =    -32.31865  eV     1   --> A_1  G_1 D_1   
     e(  2 -  2) =     -9.82056  eV     1   --> A_1  G_1 D_1   
     e(  3 -  4) =     -9.55412  eV     2   --> E    G_5 D_5   
     e(  5 -  5) =      4.32200  eV     1   --> A_1  G_1 D_1   
     e(  6 -  6) =     14.97171  eV     1   --> B_2  G_4 D_2'  
     e(  7 -  7) =     15.71254  eV     1   --> A_1  G_1 D_1   
     e(  8 -  8) =     17.68952  eV     1   -->   ?

 **************************************************************************

 **************************************************************************

                    xk=(   0.00000,   0.00000,   0.55000  )

     Band symmetry, C_4v (4mm)  point group:

     e(  1 -  1) =    -32.31418  eV     1   --> A_1  G_1 D_1   
     e(  2 -  2) =     -9.84434  eV     1   --> A_1  G_1 D_1   
     e(  3 -  4) =     -9.56259  eV     2   --> E    G_5 D_5   
     e(  5 -  5) =      4.52867  eV     1   --> A_1  G_1 D_1   
     e(  6 -  6) =     14.79940  eV     1   --> B_2  G_4 D_2'  
     e(  7 -  7) =     15.31123  eV     1   --> A_1  G_1 D_1   
     e(  8 -  8) =     17.60059  eV     1   -->   ?

 **************************************************************************

 **************************************************************************

                    xk=(   0.00000,   0.00000,   0.57500  )

     Band symmetry, C_4v (4mm)  point group:

     e(  1 -  1) =    -32.30978  eV     1   --> A_1  G_1 D_1   
     e(  2 -  2) =     -9.86737  eV     1   --> A_1  G_1 D_1   
     e(  3 -  4) =     -9.57094  eV     2   --> E    G_5 D_5   
     e(  5 -  5) =      4.74163  eV     1   --> A_1  G_1 D_1   
     e(  6 -  6) =     14.63629  eV     1   --> B_2  G_4 D_2'  
     e(  7 -  7) =     14.91708  eV     1   --> A_1  G_1 D_1   
     e(  8 -  8) =     17.51706  eV     1   -->   ?

 **************************************************************************

 **************************************************************************

                    xk=(   0.00000,   0.00000,   0.60000  )

     Band symmetry, C_4v (4mm)  point group:

     e(  1 -  1) =    -32.30545  eV     1   --> A_1  G_1 D_1   
     e(  2 -  2) =     -9.88954  eV     1   --> A_1  G_1 D_1   
     e(  3 -  4) =     -9.57914  eV     2   --> E    G_5 D_5   
     e(  5 -  5) =      4.96060  eV     1   --> A_1  G_1 D_1   
     e(  6 -  6) =     14.48241  eV     1   --> B_2  G_4 D_2'  
     e(  7 -  7) =     14.53003  eV     1   --> A_1  G_1 D_1   
     e(  8 -  8) =     17.43889  eV     1   -->   ?

 **************************************************************************

 **************************************************************************

                    xk=(   0.00000,   0.00000,   0.62500  )

     Band symmetry, C_4v (4mm)  point group:

     e(  1 -  1) =    -32.30124  eV     1   --> A_1  G_1 D_1   
     e(  2 -  2) =     -9.91075  eV     1   --> A_1  G_1 D_1   
     e(  3 -  4) =     -9.58713  eV     2   --> E    G_5 D_5   
     e(  5 -  5) =      5.18530  eV     1   --> A_1  G_1 D_1   
     e(  6 -  6) =     14.15002  eV     1   --> A_1  G_1 D_1   
     e(  7 -  7) =     14.33779  eV     1   --> B_2  G_4 D_2'  
     e(  8 -  8) =     17.36605  eV     1   -->   ?

 **************************************************************************

 **************************************************************************

                    xk=(   0.00000,   0.00000,   0.65000  )

     Band symmetry, C_4v (4mm)  point group:

     e(  1 -  1) =    -32.29716  eV     1   --> A_1  G_1 D_1   
     e(  2 -  2) =     -9.93090  eV     1   --> A_1  G_1 D_1   
     e(  3 -  4) =     -9.59486  eV     2   --> E    G_5 D_5   
     e(  5 -  5) =      5.41549  eV     1   --> A_1  G_1 D_1   
     e(  6 -  6) =     13.77692  eV     1   --> A_1  G_1 D_1   
     e(  7 -  7) =     14.20244  eV     1   --> B_2  G_4 D_2'  
     e(  8 -  8) =     17.29846  eV     1   -->   ?

 **************************************************************************

 **************************************************************************

                    xk=(   0.00000,   0.00000,   0.67500  )

     Band symmetry, C_4v (4mm)  point group:

     e(  1 -  1) =    -32.29325  eV     1   --> A_1  G_1 D_1   
     e(  2 -  2) =     -9.94993  eV     1   --> A_1  G_1 D_1   
     e(  3 -  4) =     -9.60229  eV     2   --> E    G_5 D_5   
     e(  5 -  5) =      5.65089  eV     1   --> A_1  G_1 D_1   
     e(  6 -  6) =     13.41061  eV     1   --> A_1  G_1 D_1   
     e(  7 -  7) =     14.07637  eV     1   --> B_2  G_4 D_2'  
     e(  8 -  8) =     17.23605  eV     1   -->   ?

 **************************************************************************

 **************************************************************************

                    xk=(   0.00000,   0.00000,   0.70000  )

     Band symmetry, C_4v (4mm)  point group:

     e(  1 -  1) =    -32.28952  eV     1   --> A_1  G_1 D_1   
     e(  2 -  2) =     -9.96775  eV     1   --> A_1  G_1 D_1   
     e(  3 -  4) =     -9.60937  eV     2   --> E    G_5 D_5   
     e(  5 -  5) =      5.89129  eV     1   --> A_1  G_1 D_1   
     e(  6 -  6) =     13.05095  eV     1   --> A_1  G_1 D_1   
     e(  7 -  7) =     13.95960  eV     1   --> B_2  G_4 D_2'  
     e(  8 -  8) =     17.17873  eV     1   -->   ?

 **************************************************************************

 **************************************************************************

                    xk=(   0.00000,   0.00000,   0.72500  )

     Band symmetry, C_4v (4mm)  point group:

     e(  1 -  1) =    -32.28600  eV     1   --> A_1  G_1 D_1   
     e(  2 -  2) =     -9.98432  eV     1   --> A_1  G_1 D_1   
     e(  3 -  4) =     -9.61605  eV     2   --> E    G_5 D_5   
     e(  5 -  5) =      6.13643  eV     1   --> A_1  G_1 D_1   
     e(  6 -  6) =     12.69779  eV     1   --> A_1  G_1 D_1   
     e(  7 -  7) =     13.85214  eV     1   --> B_2  G_4 D_2'  
     e(  8 -  8) =     17.12642  eV     1   -->   ?

 **************************************************************************

 **************************************************************************

                    xk=(   0.00000,   0.00000,   0.75000  )

     Band symmetry, C_4v (4mm)  point group:

     e(  1 -  1) =    -32.28271  eV     1   --> A_1  G_1 D_1   
     e(  2 -  2) =     -9.99958  eV     1   --> A_1  G_1 D_1   
     e(  3 -  4) =     -9.62230  eV     2   --> E    G_5 D_5   
     e(  5 -  5) =      6.38609  eV     1   --> A_1  G_1 D_1   
     e(  6 -  6) =     12.35099  eV     1   --> A_1  G_1 D_1   
     e(  7 -  7) =     13.75400  eV     1   --> B_2  G_4 D_2'  
     e(  8 -  8) =     17.07903  eV     1   -->   ?

 **************************************************************************

 **************************************************************************

                    xk=(   0.00000,   0.00000,   0.77500  )

     Band symmetry, C_4v (4mm)  point group:

     e(  1 -  1) =    -32.27967  eV     1   --> A_1  G_1 D_1   
     e(  2 -  2) =    -10.01349  eV     1   --> A_1  G_1 D_1   
     e(  3 -  4) =     -9.62808  eV     2   --> E    G_5 D_5   
     e(  5 -  5) =      6.64003  eV     1   --> A_1  G_1 D_1   
     e(  6 -  6) =     12.01041  eV     1   --> A_1  G_1 D_1   
     e(  7 -  7) =     13.66519  eV     1   --> B_2  G_4 D_2'  
     e(  8 -  8) =     17.03646  eV     1   -->   ?

 **************************************************************************

 **************************************************************************

                    xk=(   0.00000,   0.00000,   0.80000  )

     Band symmetry, C_4v (4mm)  point group:

     e(  1 -  1) =    -32.27689  eV     1   --> A_1  G_1 D_1   
     e(  2 -  2) =    -10.02602  eV     1   --> A_1  G_1 D_1   
     e(  3 -  4) =     -9.63335  eV     2   --> E    G_5 D_5   
     e(  5 -  5) =      6.89801  eV     1   --> A_1  G_1 D_1   
     e(  6 -  6) =     11.67597  eV     1   --> A_1  G_1 D_1   
     e(  7 -  7) =     13.58571  eV     1   --> B_2  G_4 D_2'  
     e(  8 -  8) =     16.99864  eV     1   -->   ?

 **************************************************************************

 **************************************************************************

                    xk=(   0.00000,   0.00000,   0.82500  )

     Band symmetry, C_4v (4mm)  point group:

     e(  1 -  1) =    -32.27440  eV     1   --> A_1  G_1 D_1   
     e(  2 -  2) =    -10.03712  eV     1   --> A_1  G_1 D_1   
     e(  3 -  4) =     -9.63807  eV     2   --> E    G_5 D_5   
     e(  5 -  5) =      7.15974  eV     1   --> A_1  G_1 D_1   
     e(  6 -  6) =     11.34762  eV     1   --> A_1  G_1 D_1   
     e(  7 -  7) =     13.51556  eV     1   --> B_2  G_4 D_2'  
     e(  8 -  8) =     16.96548  eV     1   -->   ?

 **************************************************************************

 **************************************************************************

                    xk=(   0.00000,   0.00000,   0.85000  )

     Band symmetry, C_4v (4mm)  point group:

     e(  1 -  1) =    -32.27222  eV     1   --> A_1  G_1 D_1   
     e(  2 -  2) =    -10.04679  eV     1   --> A_1  G_1 D_1   
     e(  3 -  4) =     -9.64223  eV     2   --> E    G_5 D_5   
     e(  5 -  5) =      7.42483  eV     1   --> A_1  G_1 D_1   
     e(  6 -  6) =     11.02545  eV     1   --> A_1  G_1 D_1   
     e(  7 -  7) =     13.45477  eV     1   --> B_2  G_4 D_2'  
     e(  8 -  8) =     16.93691  eV     1   -->   ?

 **************************************************************************

 **************************************************************************

                    xk=(   0.00000,   0.00000,   0.87500  )

     Band symmetry, C_4v (4mm)  point group:

     e(  1 -  1) =    -32.27034  eV     1   --> A_1  G_1 D_1   
     e(  2 -  2) =    -10.05501  eV     1   --> A_1  G_1 D_1   
     e(  3 -  4) =     -9.64579  eV     2   --> E    G_5 D_5   
     e(  5 -  5) =      7.69271  eV     1   --> A_1  G_1 D_1   
     e(  6 -  6) =     10.70976  eV     1   --> A_1  G_1 D_1   
     e(  7 -  7) =     13.40331  eV     1   --> B_2  G_4 D_2'  
     e(  8 -  8) =     16.91286  eV     1   -->   ?

 **************************************************************************

 **************************************************************************

                    xk=(   0.00000,   0.00000,   0.90000  )

     Band symmetry, C_4v (4mm)  point group:

     e(  1 -  1) =    -32.26879  eV     1   --> A_1  G_1 D_1   
     e(  2 -  2) =    -10.06174  eV     1   --> A_1  G_1 D_1   
     e(  3 -  4) =     -9.64873  eV     2   --> E    G_5 D_5   
     e(  5 -  5) =      7.96234  eV     1   --> A_1  G_1 D_1   
     e(  6 -  6) =     10.40133  eV     1   --> A_1  G_1 D_1   
     e(  7 -  7) =     13.36121  eV     1   --> B_2  G_4 D_2'  
     e(  8 -  8) =     16.89326  eV     1   -->   ?

 **************************************************************************

 **************************************************************************

                    xk=(   0.00000,   0.00000,   0.92500  )

     Band symmetry, C_4v (4mm)  point group:

     e(  1 -  1) =    -32.26758  eV     1   --> A_1  G_1 D_1   
     e(  2 -  2) =    -10.06699  eV     1   --> A_1  G_1 D_1   
     e(  3 -  4) =     -9.65104  eV     2   --> E    G_5 D_5   
     e(  5 -  5) =      8.23154  eV     1   --> A_1  G_1 D_1   
     e(  6 -  6) =     10.10219  eV     1   --> A_1  G_1 D_1   
     e(  7 -  7) =     13.32847  eV     1   --> B_2  G_4 D_2'  
     e(  8 -  8) =     16.87807  eV     1   -->   ?

 **************************************************************************

 **************************************************************************

                    xk=(   0.00000,   0.00000,   0.95000  )

     Band symmetry, C_4v (4mm)  point group:

     e(  1 -  1) =    -32.26670  eV     1   --> A_1  G_1 D_1   
     e(  2 -  2) =    -10.07075  eV     1   --> A_1  G_1 D_1   
     e(  3 -  4) =     -9.65270  eV     2   --> E    G_5 D_5   
     e(  5 -  5) =      8.49445  eV     1   --> A_1  G_1 D_1   
     e(  6 -  6) =      9.81800  eV     1   --> A_1  G_1 D_1   
     e(  7 -  7) =     13.30507  eV     1   --> B_2  G_4 D_2'  
     e(  8 -  8) =     16.86725  eV     1   -->   ?

 **************************************************************************

 **************************************************************************

                    xk=(   0.00000,   0.00000,   0.97500  )

     Band symmetry, C_4v (4mm)  point group:

     e(  1 -  1) =    -32.26618  eV     1   --> A_1  G_1 D_1   
     e(  2 -  2) =    -10.07300  eV     1   --> A_1  G_1 D_1   
     e(  3 -  4) =     -9.65370  eV     2   --> E    G_5 D_5   
     e(  5 -  5) =      8.73032  eV     1   --> A_1  G_1 D_1   
     e(  6 -  6) =      9.56940  eV     1   --> A_1  G_1 D_1   
     e(  7 -  7) =     13.29104  eV     1   --> B_2  G_4 D_2'  
     e(  8 -  8) =     16.86077  eV     1   -->   ?

 **************************************************************************

 **************************************************************************

                    xk=(   0.00000,   0.00000,   1.00000  )

     point group D_4h(4/mmm)
     there are 10 classes
     the character table:

       E     2C4   C2    2C2'  2C2'' i     2S4   s_h   2s_v  2s_d 
A_1g   1.00  1.00  1.00  1.00  1.00  1.00  1.00  1.00  1.00  1.00
A_2g   1.00  1.00  1.00 -1.00 -1.00  1.00  1.00  1.00 -1.00 -1.00
B_1g   1.00 -1.00  1.00  1.00 -1.00  1.00 -1.00  1.00  1.00 -1.00
B_2g   1.00 -1.00  1.00 -1.00  1.00  1.00 -1.00  1.00 -1.00  1.00
E_g    2.00  0.00 -2.00  0.00  0.00  2.00  0.00 -2.00  0.00  0.00
A_1u   1.00  1.00  1.00  1.00  1.00 -1.00 -1.00 -1.00 -1.00 -1.00
A_2u   1.00  1.00  1.00 -1.00 -1.00 -1.00 -1.00 -1.00  1.00  1.00
B_1u   1.00 -1.00  1.00  1.00 -1.00 -1.00  1.00 -1.00 -1.00  1.00
B_2u   1.00 -1.00  1.00 -1.00  1.00 -1.00  1.00 -1.00  1.00 -1.00
E_u    2.00  0.00 -2.00  0.00  0.00 -2.00  0.00  2.00  0.00  0.00

     the symmetry operations in each class and the name of the first element:

     E        1
                                                                 
     2C4      7    8
                                                                 
     C2       2
                                                                 
     2C2'     3    4
                                                                 
     2C2''    5    6
                                                                 
     i        9
                                                                 
     2S4     15   16
                                                                 
     s_h     10
                                                                 
     2s_v    11   12
                                                                 
     2s_d    13   14
                                                                 

     Band symmetry, D_4h(4/mmm) point group:

     e(  1 -  1) =    -32.26600  eV     1   --> A_1g X_1  M_1  
     e(  2 -  2) =    -10.07376  eV     1   --> A_2u X_4' M_4' 
     e(  3 -  4) =     -9.65403  eV     2   --> E_u  X_5' M_5' 
     e(  5 -  5) =      8.84985  eV     1   --> A_1g X_1  M_1  
     e(  6 -  6) =      9.44563  eV     1   --> A_2u X_4' M_4' 
     e(  7 -  7) =     13.28636  eV     1   --> B_2g X_3  M_3  
     e(  8 -  8) =     16.85861  eV     1   -->   ?

 **************************************************************************

 **************************************************************************

                    xk=(  -0.01250,   0.00000,   1.00000  )

     point group C_2v (mm2) 
     there are  4 classes
     the character table:

       E     C2    s_v   s_v' 
A_1    1.00  1.00  1.00  1.00
A_2    1.00  1.00 -1.00 -1.00
B_1    1.00 -1.00  1.00 -1.00
B_2    1.00 -1.00 -1.00  1.00

     the symmetry operations in each class and the name of the first element:

     E        1
                                                                 
     C2       2
                                                                 
     s_v      4
                                                                 
     s_v'     3
                                                                 

     Band symmetry, C_2v (mm2)  point group:

     e(  1 -  1) =    -32.26600  eV     1   --> A_1  D_1  S_1  
     e(  2 -  2) =    -10.07360  eV     1   --> B_1  D_3  S_3  
     e(  3 -  3) =     -9.65420  eV     1   --> B_2  D_4  S_4  
     e(  4 -  4) =     -9.65406  eV     1   --> A_1  D_1  S_1  
     e(  5 -  5) =      8.85090  eV     1   --> A_1  D_1  S_1  
     e(  6 -  6) =      9.44631  eV     1   --> B_1  D_3  S_3  
     e(  7 -  7) =     13.28115  eV     1   --> B_2  D_4  S_4  
     e(  8 -  8) =     16.85322  eV     1   --> A_1  D_1  S_1  

 **************************************************************************

 **************************************************************************

                    xk=(  -0.02500,   0.00000,   1.00000  )

     Band symmetry, C_2v (mm2)  point group:

     e(  1 -  1) =    -32.26600  eV     1   --> A_1  D_1  S_1  
     e(  2 -  2) =    -10.07312  eV     1   --> B_1  D_3  S_3  
     e(  3 -  3) =     -9.65469  eV     1   --> B_2  D_4  S_4  
     e(  4 -  4) =     -9.65416  eV     1   --> A_1  D_1  S_1  
     e(  5 -  5) =      8.85404  eV     1   --> A_1  D_1  S_1  
     e(  6 -  6) =      9.44835  eV     1   --> B_1  D_3  S_3  
     e(  7 -  7) =     13.26566  eV     1   --> B_2  D_4  S_4  
     e(  8 -  8) =     16.83716  eV     1   --> A_1  D_1  S_1  

 **************************************************************************

 **************************************************************************

                    xk=(  -0.03750,  -0.00000,   1.00000  )

     Band symmetry, C_2v (mm2)  point group:

     e(  1 -  1) =    -32.26600  eV     1   --> A_1  D_1  S_1  
     e(  2 -  2) =    -10.07232  eV     1   --> B_1  D_3  S_3  
     e(  3 -  3) =     -9.65551  eV     1   --> B_2  D_4  S_4  
     e(  4 -  4) =     -9.65432  eV     1   --> A_1  D_1  S_1  
     e(  5 -  5) =      8.85926  eV     1   --> A_1  D_1  S_1  
     e(  6 -  6) =      9.45176  eV     1   --> B_1  D_3  S_3  
     e(  7 -  7) =     13.24028  eV     1   --> B_2  D_4  S_4  
     e(  8 -  8) =     16.81074  eV     1   --> A_1  D_1  S_1  

 **************************************************************************

 **************************************************************************

                    xk=(  -0.05000,  -0.00000,   1.00000  )

     Band symmetry, C_2v (mm2)  point group:

     e(  1 -  1) =    -32.26599  eV     1   --> A_1  D_1  S_1  
     e(  2 -  2) =    -10.07121  eV     1   --> B_1  D_3  S_3  
     e(  3 -  3) =     -9.65666  eV     1   --> B_2  D_4  S_4  
     e(  4 -  4) =     -9.65454  eV     1   --> A_1  D_1  S_1  
     e(  5 -  5) =      8.86654  eV     1   --> A_1  D_1  S_1  
     e(  6 -  6) =      9.45652  eV     1   --> B_1  D_3  S_3  
     e(  7 -  7) =     13.20563  eV     1   --> B_2  D_4  S_4  
     e(  8 -  8) =     16.77442  eV     1   --> A_1  D_1  S_1  

 **************************************************************************

 **************************************************************************

                    xk=(  -0.06250,   0.00000,   1.00000  )

     Band symmetry, C_2v (mm2)  point group:

     e(  1 -  1) =    -32.26599  eV     1   --> A_1  D_1  S_1  
     e(  2 -  2) =    -10.06979  eV     1   --> B_1  D_3  S_3  
     e(  3 -  3) =     -9.65813  eV     1   --> B_2  D_4  S_4  
     e(  4 -  4) =     -9.65483  eV     1   --> A_1  D_1  S_1  
     e(  5 -  5) =      8.87587  eV     1   --> A_1  D_1  S_1  
     e(  6 -  6) =      9.46265  eV     1   --> B_1  D_3  S_3  
     e(  7 -  7) =     13.16246  eV     1   --> B_2  D_4  S_4  
     e(  8 -  8) =     16.72884  eV     1   --> A_1  D_1  S_1  

 **************************************************************************

 **************************************************************************

                    xk=(  -0.07500,   0.00000,   1.00000  )

     Band symmetry, C_2v (mm2)  point group:

     e(  1 -  1) =    -32.26598  eV     1   --> A_1  D_1  S_1  
     e(  2 -  2) =    -10.06805  eV     1   --> B_1  D_3  S_3  
     e(  3 -  3) =     -9.65992  eV     1   --> B_2  D_4  S_4  
     e(  4 -  4) =     -9.65517  eV     1   --> A_1  D_1  S_1  
     e(  5 -  5) =      8.88721  eV     1   --> A_1  D_1  S_1  
     e(  6 -  6) =      9.47014  eV     1   --> B_1  D_3  S_3  
     e(  7 -  7) =     13.11166  eV     1   --> B_2  D_4  S_4  
     e(  8 -  8) =     16.67474  eV     1   --> A_1  D_1  S_1  

 **************************************************************************

 **************************************************************************

                    xk=(  -0.08750,   0.00000,   1.00000  )

     Band symmetry, C_2v (mm2)  point group:

     e(  1 -  1) =    -32.26597  eV     1   --> A_1  D_1  S_1  
     e(  2 -  2) =    -10.06600  eV     1   --> B_1  D_3  S_3  
     e(  3 -  3) =     -9.66203  eV     1   --> B_2  D_4  S_4  
     e(  4 -  4) =     -9.65557  eV     1   --> A_1  D_1  S_1  
     e(  5 -  5) =      8.90053  eV     1   --> A_1  D_1  S_1  
     e(  6 -  6) =      9.47901  eV     1   --> B_1  D_3  S_3  
     e(  7 -  7) =     13.05415  eV     1   --> B_2  D_4  S_4  
     e(  8 -  8) =     16.61292  eV     1   --> A_1  D_1  S_1  

 **************************************************************************

 **************************************************************************

                    xk=(  -0.10000,  -0.00000,   1.00000  )

     Band symmetry, C_2v (mm2)  point group:

     e(  1 -  1) =    -32.26597  eV     1   --> A_1  D_1  S_1  
     e(  2 -  2) =    -10.06364  eV     1   --> B_1  D_3  S_3  
     e(  3 -  3) =     -9.66446  eV     1   --> B_2  D_4  S_4  
     e(  4 -  4) =     -9.65603  eV     1   --> A_1  D_1  S_1  
     e(  5 -  5) =      8.91579  eV     1   --> A_1  D_1  S_1  
     e(  6 -  6) =      9.48924  eV     1   --> B_1  D_3  S_3  
     e(  7 -  7) =     12.99083  eV     1   --> B_2  D_4  S_4  
     e(  8 -  8) =     16.54423  eV     1   --> A_1  D_1  S_1  

 **************************************************************************

 **************************************************************************

                    xk=(  -0.11250,  -0.00000,   1.00000  )

     Band symmetry, C_2v (mm2)  point group:

     e(  1 -  1) =    -32.26596  eV     1   --> A_1  D_1  S_1  
     e(  2 -  2) =    -10.06098  eV     1   --> B_1  D_3  S_3  
     e(  3 -  3) =     -9.66720  eV     1   --> B_2  D_4  S_4  
     e(  4 -  4) =     -9.65653  eV     1   --> A_1  D_1  S_1  
     e(  5 -  5) =      8.93293  eV     1   --> A_1  D_1  S_1  
     e(  6 -  6) =      9.50085  eV     1   --> B_1  D_3  S_3  
     e(  7 -  7) =     12.92259  eV     1   --> B_2  D_4  S_4  
     e(  8 -  8) =     16.46950  eV     1   --> A_1  D_1  S_1  

 **************************************************************************

 **************************************************************************

                    xk=(  -0.12500,   0.00000,   1.00000  )

     Band symmetry, C_2v (mm2)  point group:

     e(  1 -  1) =    -32.26595  eV     1   --> A_1  D_1  S_1  
     e(  2 -  2) =    -10.05802  eV     1   --> B_1  D_3  S_3  
     e(  3 -  3) =     -9.67025  eV     1   --> B_2  D_4  S_4  
     e(  4 -  4) =     -9.65709  eV     1   --> A_1  D_1  S_1  
     e(  5 -  5) =      8.95191  eV     1   --> A_1  D_1  S_1  
     e(  6 -  6) =      9.51384  eV     1   --> B_1  D_3  S_3  
     e(  7 -  7) =     12.85024  eV     1   --> B_2  D_4  S_4  
     e(  8 -  8) =     16.38958  eV     1   --> A_1  D_1  S_1  

 **************************************************************************

 **************************************************************************

                    xk=(  -0.13750,   0.00000,   1.00000  )

     Band symmetry, C_2v (mm2)  point group:

     e(  1 -  1) =    -32.26594  eV     1   --> A_1  D_1  S_1  
     e(  2 -  2) =    -10.05477  eV     1   --> B_1  D_3  S_3  
     e(  3 -  3) =     -9.67359  eV     1   --> B_2  D_4  S_4  
     e(  4 -  4) =     -9.65769  eV     1   --> A_1  D_1  S_1  
     e(  5 -  5) =      8.97265  eV     1   --> A_1  D_1  S_1  
     e(  6 -  6) =      9.52822  eV     1   --> B_1  D_3  S_3  
     e(  7 -  7) =     12.77452  eV     1   --> B_2  D_4  S_4  
     e(  8 -  8) =     16.30525  eV     1   --> A_1  D_1  S_1  

 **************************************************************************

 **************************************************************************

                    xk=(  -0.15000,   0.00000,   1.00000  )

     Band symmetry, C_2v (mm2)  point group:

     e(  1 -  1) =    -32.26592  eV     1   --> A_1  D_1  S_1  
     e(  2 -  2) =    -10.05122  eV     1   --> B_1  D_3  S_3  
     e(  3 -  3) =     -9.67724  eV     1   --> B_2  D_4  S_4  
     e(  4 -  4) =     -9.65833  eV     1   --> A_1  D_1  S_1  
     e(  5 -  5) =      8.99508  eV     1   --> A_1  D_1  S_1  
     e(  6 -  6) =      9.54398  eV     1   --> B_1  D_3  S_3  
     e(  7 -  7) =     12.69610  eV     1   --> B_2  D_4  S_4  
     e(  8 -  8) =     16.21728  eV     1   --> A_1  D_1  S_1  

 **************************************************************************

 **************************************************************************

                    xk=(  -0.16250,  -0.00000,   1.00000  )

     Band symmetry, C_2v (mm2)  point group:

     e(  1 -  1) =    -32.26591  eV     1   --> A_1  D_1  S_1  
     e(  2 -  2) =    -10.04739  eV     1   --> B_1  D_3  S_3  
     e(  3 -  3) =     -9.68118  eV     1   --> B_2  D_4  S_4  
     e(  4 -  4) =     -9.65901  eV     1   --> A_1  D_1  S_1  
     e(  5 -  5) =      9.01912  eV     1   --> A_1  D_1  S_1  
     e(  6 -  6) =      9.56114  eV     1   --> B_1  D_3  S_3  
     e(  7 -  7) =     12.61557  eV     1   --> B_2  D_4  S_4  
     e(  8 -  8) =     16.12637  eV     1   --> A_1  D_1  S_1  

 **************************************************************************

 **************************************************************************

                    xk=(  -0.17500,  -0.00000,   1.00000  )

     Band symmetry, C_2v (mm2)  point group:

     e(  1 -  1) =    -32.26590  eV     1   --> A_1  D_1  S_1  
     e(  2 -  2) =    -10.04328  eV     1   --> B_1  D_3  S_3  
     e(  3 -  3) =     -9.68540  eV     1   --> B_2  D_4  S_4  
     e(  4 -  4) =     -9.65973  eV     1   --> A_1  D_1  S_1  
     e(  5 -  5) =      9.04469  eV     1   --> A_1  D_1  S_1  
     e(  6 -  6) =      9.57969  eV     1   --> B_1  D_3  S_3  
     e(  7 -  7) =     12.53343  eV     1   --> B_2  D_4  S_4  
     e(  8 -  8) =     16.03318  eV     1   --> A_1  D_1  S_1  

 **************************************************************************

 **************************************************************************

                    xk=(  -0.18750,   0.00000,   1.00000  )

     Band symmetry, C_2v (mm2)  point group:

     e(  1 -  1) =    -32.26588  eV     1   --> A_1  D_1  S_1  
     e(  2 -  2) =    -10.03890  eV     1   --> B_1  D_3  S_3  
     e(  3 -  3) =     -9.68990  eV     1   --> B_2  D_4  S_4  
     e(  4 -  4) =     -9.66047  eV     1   --> A_1  D_1  S_1  
     e(  5 -  5) =      9.07168  eV     1   --> A_1  D_1  S_1  
     e(  6 -  6) =      9.59965  eV     1   --> B_1  D_3  S_3  
     e(  7 -  7) =     12.45014  eV     1   --> B_2  D_4  S_4  
     e(  8 -  8) =     15.93833  eV     1   --> A_1  D_1  S_1  

 **************************************************************************

 **************************************************************************

                    xk=(  -0.20000,   0.00000,   1.00000  )

     Band symmetry, C_2v (mm2)  point group:

     e(  1 -  1) =    -32.26587  eV     1   --> A_1  D_1  S_1  
     e(  2 -  2) =    -10.03425  eV     1   --> B_1  D_3  S_3  
     e(  3 -  3) =     -9.69467  eV     1   --> B_2  D_4  S_4  
     e(  4 -  4) =     -9.66124  eV     1   --> A_1  D_1  S_1  
     e(  5 -  5) =      9.09998  eV     1   --> A_1  D_1  S_1  
     e(  6 -  6) =      9.62103  eV     1   --> B_1  D_3  S_3  
     e(  7 -  7) =     12.36609  eV     1   --> B_2  D_4  S_4  
     e(  8 -  8) =     15.84240  eV     1   --> A_1  D_1  S_1  

 **************************************************************************

 **************************************************************************

                    xk=(  -0.21250,   0.00000,   1.00000  )

     Band symmetry, C_2v (mm2)  point group:

     e(  1 -  1) =    -32.26586  eV     1   --> A_1  D_1  S_1  
     e(  2 -  2) =    -10.02933  eV     1   --> B_1  D_3  S_3  
     e(  3 -  3) =     -9.69971  eV     1   --> B_2  D_4  S_4  
     e(  4 -  4) =     -9.66202  eV     1   --> A_1  D_1  S_1  
     e(  5 -  5) =      9.12947  eV     1   --> A_1  D_1  S_1  
     e(  6 -  6) =      9.64382  eV     1   --> B_1  D_3  S_3  
     e(  7 -  7) =     12.28161  eV     1   --> B_2  D_4  S_4  
     e(  8 -  8) =     15.74590  eV     1   --> A_1  D_1  S_1  

 **************************************************************************

 **************************************************************************

                    xk=(  -0.22500,  -0.00000,   1.00000  )

     Band symmetry, C_2v (mm2)  point group:

     e(  1 -  1) =    -32.26584  eV     1   --> A_1  D_1  S_1  
     e(  2 -  2) =    -10.02417  eV     1   --> B_1  D_3  S_3  
     e(  3 -  3) =     -9.70500  eV     1   --> B_2  D_4  S_4  
     e(  4 -  4) =     -9.66282  eV     1   --> A_1  D_1  S_1  
     e(  5 -  5) =      9.16003  eV     1   --> A_1  D_1  S_1  
     e(  6 -  6) =      9.66804  eV     1   --> B_1  D_3  S_3  
     e(  7 -  7) =     12.19699  eV     1   --> B_2  D_4  S_4  
     e(  8 -  8) =     15.64935  eV     1   --> A_1  D_1  S_1  

 **************************************************************************

 **************************************************************************

                    xk=(  -0.23750,  -0.00000,   1.00000  )

     Band symmetry, C_2v (mm2)  point group:

     e(  1 -  1) =    -32.26583  eV     1   --> A_1  D_1  S_1  
     e(  2 -  2) =    -10.01876  eV     1   --> B_1  D_3  S_3  
     e(  3 -  3) =     -9.71054  eV     1   --> B_2  D_4  S_4  
     e(  4 -  4) =     -9.66363  eV     1   --> A_1  D_1  S_1  
     e(  5 -  5) =      9.19151  eV     1   --> A_1  D_1  S_1  
     e(  6 -  6) =      9.69368  eV     1   --> B_1  D_3  S_3  
     e(  7 -  7) =     12.11249  eV     1   --> B_2  D_4  S_4  
     e(  8 -  8) =     15.55321  eV     1   --> A_1  D_1  S_1  

 **************************************************************************

 **************************************************************************

                    xk=(  -0.25000,   0.00000,   1.00000  )

     Band symmetry, C_2v (mm2)  point group:

     e(  1 -  1) =    -32.26581  eV     1   --> A_1  D_1  S_1  
     e(  2 -  2) =    -10.01311  eV     1   --> B_1  D_3  S_3  
     e(  3 -  3) =     -9.71631  eV     1   --> B_2  D_4  S_4  
     e(  4 -  4) =     -9.66445  eV     1   --> A_1  D_1  S_1  
     e(  5 -  5) =      9.22375  eV     1   --> A_1  D_1  S_1  
     e(  6 -  6) =      9.72077  eV     1   --> B_1  D_3  S_3  
     e(  7 -  7) =     12.02831  eV     1   --> B_2  D_4  S_4  
     e(  8 -  8) =     15.45793  eV     1   --> A_1  D_1  S_1  

 **************************************************************************

 **************************************************************************

                    xk=(  -0.26250,   0.00000,   1.00000  )

     Band symmetry, C_2v (mm2)  point group:

     e(  1 -  1) =    -32.26580  eV     1   --> A_1  D_1  S_1  
     e(  2 -  2) =    -10.00724  eV     1   --> B_1  D_3  S_3  
     e(  3 -  3) =     -9.72232  eV     1   --> B_2  D_4  S_4  
     e(  4 -  4) =     -9.66527  eV     1   --> A_1  D_1  S_1  
     e(  5 -  5) =      9.25660  eV     1   --> A_1  D_1  S_1  
     e(  6 -  6) =      9.74931  eV     1   --> B_1  D_3  S_3  
     e(  7 -  7) =     11.94465  eV     1   --> B_2  D_4  S_4  
     e(  8 -  8) =     15.36392  eV     1   --> A_1  D_1  S_1  

 **************************************************************************

 **************************************************************************

                    xk=(  -0.27500,   0.00000,   1.00000  )

     Band symmetry, C_2v (mm2)  point group:

     e(  1 -  1) =    -32.26578  eV     1   --> A_1  D_1  S_1  
     e(  2 -  2) =    -10.00114  eV     1   --> B_1  D_3  S_3  
     e(  3 -  3) =     -9.72854  eV     1   --> B_2  D_4  S_4  
     e(  4 -  4) =     -9.66608  eV     1   --> A_1  D_1  S_1  
     e(  5 -  5) =      9.28987  eV     1   --> A_1  D_1  S_1  
     e(  6 -  6) =      9.77930  eV     1   --> B_1  D_3  S_3  
     e(  7 -  7) =     11.86166  eV     1   --> B_2  D_4  S_4  
     e(  8 -  8) =     15.27160  eV     1   --> A_1  D_1  S_1  

 **************************************************************************

 **************************************************************************

                    xk=(  -0.28750,  -0.00000,   1.00000  )

     Band symmetry, C_2v (mm2)  point group:

     e(  1 -  1) =    -32.26577  eV     1   --> A_1  D_1  S_1  
     e(  2 -  2) =     -9.99483  eV     1   --> B_1  D_3  S_3  
     e(  3 -  3) =     -9.73498  eV     1   --> B_2  D_4  S_4  
     e(  4 -  4) =     -9.66688  eV     1   --> A_1  D_1  S_1  
     e(  5 -  5) =      9.32338  eV     1   --> A_1  D_1  S_1  
     e(  6 -  6) =      9.81075  eV     1   --> B_1  D_3  S_3  
     e(  7 -  7) =     11.77949  eV     1   --> B_2  D_4  S_4  
     e(  8 -  8) =     15.18136  eV     1   --> A_1  D_1  S_1  

 **************************************************************************

 **************************************************************************

                    xk=(  -0.30000,   0.00000,   1.00000  )

     Band symmetry, C_2v (mm2)  point group:

     e(  1 -  1) =    -32.26575  eV     1   --> A_1  D_1  S_1  
     e(  2 -  2) =     -9.98833  eV     1   --> B_1  D_3  S_3  
     e(  3 -  3) =     -9.74161  eV     1   --> B_2  D_4  S_4  
     e(  4 -  4) =     -9.66766  eV     1   --> A_1  D_1  S_1  
     e(  5 -  5) =      9.35692  eV     1   --> A_1  D_1  S_1  
     e(  6 -  6) =      9.84367  eV     1   --> B_1  D_3  S_3  
     e(  7 -  7) =     11.69824  eV     1   --> B_2  D_4  S_4  
     e(  8 -  8) =     15.09357  eV     1   --> A_1  D_1  S_1  

 **************************************************************************

 **************************************************************************

                    xk=(  -0.31250,   0.00000,   1.00000  )

     Band symmetry, C_2v (mm2)  point group:

     e(  1 -  1) =    -32.26574  eV     1   --> A_1  D_1  S_1  
     e(  2 -  2) =     -9.98163  eV     1   --> B_1  D_3  S_3  
     e(  3 -  3) =     -9.74843  eV     1   --> B_2  D_4  S_4  
     e(  4 -  4) =     -9.66843  eV     1   --> A_1  D_1  S_1  
     e(  5 -  5) =      9.39027  eV     1   --> A_1  D_1  S_1  
     e(  6 -  6) =      9.87808  eV     1   --> B_1  D_3  S_3  
     e(  7 -  7) =     11.61803  eV     1   --> B_2  D_4  S_4  
     e(  8 -  8) =     15.00863  eV     1   --> A_1  D_1  S_1  

 **************************************************************************

 **************************************************************************

                    xk=(  -0.32500,   0.00000,   1.00000  )

     Band symmetry, C_2v (mm2)  point group:

     e(  1 -  1) =    -32.26572  eV     1   --> A_1  D_1  S_1  
     e(  2 -  2) =     -9.97474  eV     1   --> B_1  D_3  S_3  
     e(  3 -  3) =     -9.75543  eV     1   --> B_2  D_4  S_4  
     e(  4 -  4) =     -9.66917  eV     1   --> A_1  D_1  S_1  
     e(  5 -  5) =      9.42320  eV     1   --> A_1  D_1  S_1  
     e(  6 -  6) =      9.91397  eV     1   --> B_1  D_3  S_3  
     e(  7 -  7) =     11.53893  eV     1   --> B_2  D_4  S_4  
     e(  8 -  8) =     14.92688  eV     1   --> A_1  D_1  S_1  

 **************************************************************************

 **************************************************************************

                    xk=(  -0.33750,   0.00000,   1.00000  )

     Band symmetry, C_2v (mm2)  point group:

     e(  1 -  1) =    -32.26571  eV     1   --> A_1  D_1  S_1  
     e(  2 -  2) =     -9.96769  eV     1   --> B_1  D_3  S_3  
     e(  3 -  3) =     -9.76259  eV     1   --> B_2  D_4  S_4  
     e(  4 -  4) =     -9.66988  eV     1   --> A_1  D_1  S_1  
     e(  5 -  5) =      9.45548  eV     1   --> A_1  D_1  S_1  
     e(  6 -  6) =      9.95135  eV     1   --> B_1  D_3  S_3  
     e(  7 -  7) =     11.46103  eV     1   --> B_2  D_4  S_4  
     e(  8 -  8) =     14.84871  eV     1   --> A_1  D_1  S_1  

 **************************************************************************

 **************************************************************************

                    xk=(  -0.35000,  -0.00000,   1.00000  )

     Band symmetry, C_2v (mm2)  point group:

     e(  1 -  1) =    -32.26570  eV     1   --> A_1  D_1  S_1  
     e(  2 -  2) =     -9.96048  eV     1   --> B_1  D_3  S_3  
     e(  3 -  3) =     -9.76992  eV     1   --> B_2  D_4  S_4  
     e(  4 -  4) =     -9.67056  eV     1   --> A_1  D_1  S_1  
     e(  5 -  5) =      9.48685  eV     1   --> A_1  D_1  S_1  
     e(  6 -  6) =      9.99024  eV     1   --> B_1  D_3  S_3  
     e(  7 -  7) =     11.38438  eV     1   --> B_2  D_4  S_4  
     e(  8 -  8) =     14.77446  eV     1   --> A_1  D_1  S_1  

 **************************************************************************

 **************************************************************************

                    xk=(  -0.36250,   0.00000,   1.00000  )

     Band symmetry, C_2v (mm2)  point group:

     e(  1 -  1) =    -32.26569  eV     1   --> A_1  D_1  S_1  
     e(  2 -  2) =     -9.95311  eV     1   --> B_1  D_3  S_3  
     e(  3 -  3) =     -9.77738  eV     1   --> B_2  D_4  S_4  
     e(  4 -  4) =     -9.67120  eV     1   --> A_1  D_1  S_1  
     e(  5 -  5) =      9.51705  eV     1   --> A_1  D_1  S_1  
     e(  6 -  6) =     10.03064  eV     1   --> B_1  D_3  S_3  
     e(  7 -  7) =     11.30906  eV     1   --> B_2  D_4  S_4  
     e(  8 -  8) =     14.70450  eV     1   --> A_1  D_1  S_1  

 **************************************************************************

 **************************************************************************

                    xk=(  -0.37500,   0.00000,   1.00000  )

     Band symmetry, C_2v (mm2)  point group:

     e(  1 -  1) =    -32.26567  eV     1   --> A_1  D_1  S_1  
     e(  2 -  2) =     -9.94561  eV     1   --> B_1  D_3  S_3  
     e(  3 -  3) =     -9.78498  eV     1   --> B_2  D_4  S_4  
     e(  4 -  4) =     -9.67179  eV     1   --> A_1  D_1  S_1  
     e(  5 -  5) =      9.54583  eV     1   --> A_1  D_1  S_1  
     e(  6 -  6) =     10.07255  eV     1   --> B_1  D_3  S_3  
     e(  7 -  7) =     11.23509  eV     1   --> B_2  D_4  S_4  
     e(  8 -  8) =     14.63917  eV     1   --> A_1  D_1  S_1  

 **************************************************************************

 **************************************************************************

                    xk=(  -0.38750,   0.00000,   1.00000  )

     Band symmetry, C_2v (mm2)  point group:

     e(  1 -  1) =    -32.26566  eV     1   --> A_1  D_1  S_1  
     e(  2 -  2) =     -9.93798  eV     1   --> B_1  D_3  S_3  
     e(  3 -  3) =     -9.79270  eV     1   --> B_2  D_4  S_4  
     e(  4 -  4) =     -9.67235  eV     1   --> A_1  D_1  S_1  
     e(  5 -  5) =      9.57291  eV     1   --> A_1  D_1  S_1  
     e(  6 -  6) =     10.11599  eV     1   --> B_1  D_3  S_3  
     e(  7 -  7) =     11.16252  eV     1   --> B_2  D_4  S_4  
     e(  8 -  8) =     14.57881  eV     1   --> A_1  D_1  S_1  

 **************************************************************************

 **************************************************************************

                    xk=(  -0.40000,   0.00000,   1.00000  )

     Band symmetry, C_2v (mm2)  point group:

     e(  1 -  1) =    -32.26566  eV     1   --> A_1  D_1  S_1  
     e(  2 -  2) =     -9.93023  eV     1   --> B_1  D_3  S_3  
     e(  3 -  3) =     -9.80052  eV     1   --> B_2  D_4  S_4  
     e(  4 -  4) =     -9.67285  eV     1   --> A_1  D_1  S_1  
     e(  5 -  5) =      9.59803  eV     1   --> A_1  D_1  S_1  
     e(  6 -  6) =     10.16097  eV     1   --> B_1  D_3  S_3  
     e(  7 -  7) =     11.09139  eV     1   --> B_2  D_4  S_4  
     e(  8 -  8) =     14.52376  eV     1   --> A_1  D_1  S_1  

 **************************************************************************

 **************************************************************************

                    xk=(  -0.41250,  -0.00000,   1.00000  )

     Band symmetry, C_2v (mm2)  point group:

     e(  1 -  1) =    -32.26565  eV     1   --> A_1  D_1  S_1  
     e(  2 -  2) =     -9.92238  eV     1   --> B_1  D_3  S_3  
     e(  3 -  3) =     -9.80845  eV     1   --> B_2  D_4  S_4  
     e(  4 -  4) =     -9.67330  eV     1   --> A_1  D_1  S_1  
     e(  5 -  5) =      9.62093  eV     1   --> A_1  D_1  S_1  
     e(  6 -  6) =     10.20748  eV     1   --> B_1  D_3  S_3  
     e(  7 -  7) =     11.02172  eV     1   --> B_2  D_4  S_4  
     e(  8 -  8) =     14.47433  eV     1   --> A_1  D_1  S_1  

 **************************************************************************

 **************************************************************************

                    xk=(  -0.42500,   0.00000,   1.00000  )

     Band symmetry, C_2v (mm2)  point group:

     e(  1 -  1) =    -32.26564  eV     1   --> A_1  D_1  S_1  
     e(  2 -  2) =     -9.91444  eV     1   --> B_1  D_3  S_3  
     e(  3 -  3) =     -9.81645  eV     1   --> B_2  D_4  S_4  
     e(  4 -  4) =     -9.67370  eV     1   --> A_1  D_1  S_1  
     e(  5 -  5) =      9.64136  eV     1   --> A_1  D_1  S_1  
     e(  6 -  6) =     10.25554  eV     1   --> B_1  D_3  S_3  
     e(  7 -  7) =     10.95354  eV     1   --> B_2  D_4  S_4  
     e(  8 -  8) =     14.43081  eV     1   --> A_1  D_1  S_1  

 **************************************************************************

 **************************************************************************

                    xk=(  -0.43750,   0.00000,   1.00000  )

     Band symmetry, C_2v (mm2)  point group:

     e(  1 -  1) =    -32.26563  eV     1   --> A_1  D_1  S_1  
     e(  2 -  2) =     -9.90642  eV     1   --> B_1  D_3  S_3  
     e(  3 -  3) =     -9.82453  eV     1   --> B_2  D_4  S_4  
     e(  4 -  4) =     -9.67404  eV     1   --> A_1  D_1  S_1  
     e(  5 -  5) =      9.65909  eV     1   --> A_1  D_1  S_1  
     e(  6 -  6) =     10.30514  eV     1   --> B_1  D_3  S_3  
     e(  7 -  7) =     10.88686  eV     1   --> B_2  D_4  S_4  
     e(  8 -  8) =     14.39348  eV     1   --> A_1  D_1  S_1  

 **************************************************************************

 **************************************************************************

                    xk=(  -0.45000,   0.00000,   1.00000  )

     Band symmetry, C_2v (mm2)  point group:

     e(  1 -  1) =    -32.26563  eV     1   --> A_1  D_1  S_1  
     e(  2 -  2) =     -9.89833  eV     1   --> B_1  D_3  S_3  
     e(  3 -  3) =     -9.83266  eV     1   --> B_2  D_4  S_4  
     e(  4 -  4) =     -9.67432  eV     1   --> A_1  D_1  S_1  
     e(  5 -  5) =      9.67391  eV     1   --> A_1  D_1  S_1  
     e(  6 -  6) =     10.35630  eV     1   --> B_1  D_3  S_3  
     e(  7 -  7) =     10.82171  eV     1   --> B_2  D_4  S_4  
     e(  8 -  8) =     14.36258  eV     1   --> A_1  D_1  S_1  

 **************************************************************************

 **************************************************************************

                    xk=(  -0.46250,   0.00000,   1.00000  )

     Band symmetry, C_2v (mm2)  point group:

     e(  1 -  1) =    -32.26562  eV     1   --> A_1  D_1  S_1  
     e(  2 -  2) =     -9.89018  eV     1   --> B_1  D_3  S_3  
     e(  3 -  3) =     -9.84084  eV     1   --> B_2  D_4  S_4  
     e(  4 -  4) =     -9.67454  eV     1   --> A_1  D_1  S_1  
     e(  5 -  5) =      9.68563  eV     1   --> A_1  D_1  S_1  
     e(  6 -  6) =     10.40902  eV     1   --> B_1  D_3  S_3  
     e(  7 -  7) =     10.75809  eV     1   --> B_2  D_4  S_4  
     e(  8 -  8) =     14.33832  eV     1   --> A_1  D_1  S_1  

 **************************************************************************

 **************************************************************************

                    xk=(  -0.47500,  -0.00000,   1.00000  )

     Band symmetry, C_2v (mm2)  point group:

     e(  1 -  1) =    -32.26562  eV     1   --> A_1  D_1  S_1  
     e(  2 -  2) =     -9.88199  eV     1   --> B_1  D_3  S_3  
     e(  3 -  3) =     -9.84906  eV     1   --> B_2  D_4  S_4  
     e(  4 -  4) =     -9.67470  eV     1   --> A_1  D_1  S_1  
     e(  5 -  5) =      9.69412  eV     1   --> A_1  D_1  S_1  
     e(  6 -  6) =     10.46330  eV     1   --> B_1  D_3  S_3  
     e(  7 -  7) =     10.69602  eV     1   --> B_2  D_4  S_4  
     e(  8 -  8) =     14.32087  eV     1   --> A_1  D_1  S_1  

 **************************************************************************

 **************************************************************************

                    xk=(  -0.48750,   0.00000,   1.00000  )

     Band symmetry, C_2v (mm2)  point group:

     e(  1 -  1) =    -32.26562  eV     1   --> A_1  D_1  S_1  
     e(  2 -  2) =     -9.87377  eV     1   --> B_1  D_3  S_3  
     e(  3 -  3) =     -9.85729  eV     1   --> B_2  D_4  S_4  
     e(  4 -  4) =     -9.67480  eV     1   --> A_1  D_1  S_1  
     e(  5 -  5) =      9.69925  eV     1   --> A_1  D_1  S_1  
     e(  6 -  6) =     10.51914  eV     1   --> B_1  D_3  S_3  
     e(  7 -  7) =     10.63550  eV     1   --> B_2  D_4  S_4  
     e(  8 -  8) =     14.31035  eV     1   --> A_1  D_1  S_1  

 **************************************************************************

 **************************************************************************

                    xk=(  -0.50000,   0.00000,   1.00000  )

     point group D_2d (-42m)
     there are  5 classes
     the character table:

       E     2S4   C2    2C2'  2s_d 
A_1    1.00  1.00  1.00  1.00  1.00
A_2    1.00  1.00  1.00 -1.00 -1.00
B_1    1.00 -1.00  1.00  1.00 -1.00
B_2    1.00 -1.00  1.00 -1.00  1.00
E      2.00  0.00 -2.00  0.00  0.00

     the symmetry operations in each class and the name of the first element:

     E        1
                                                                 
     2S4      7    8
                                                                 
     C2       2
                                                                 
     2C2'     3    4
                                                                 
     2s_d     5    6
                                                                 

     Band symmetry, D_2d (-42m) point group:

     e(  1 -  1) =    -32.26562  eV     1   --> A_1  X_1  W_1  
     e(  2 -  3) =     -9.86553  eV     2   --> E    X_5  W_3  
     e(  4 -  4) =     -9.67483  eV     1   --> B_2  X_3  W_2  
     e(  5 -  5) =      9.70097  eV     1   --> B_2  X_3  W_2  
     e(  6 -  7) =     10.57654  eV     2   --> E    X_5  W_3  
     e(  8 -  8) =     14.30683  eV     1   --> A_1  X_1  W_1  

 **************************************************************************

 **************************************************************************

                    xk=(  -0.50000,  -0.01250,   0.98750  )

     point group C_2  (2)   
     there are  2 classes
     the character table:

       E     C2   
A      1.00  1.00
B      1.00 -1.00

     the symmetry operations in each class and the name of the first element:

     E        1
                                                                 
     C2       2
                                                                 

     Band symmetry, C_2  (2)    point group:

     e(  1 -  1) =    -32.26566  eV     1   --> A              
     e(  2 -  2) =     -9.86638  eV     1   --> B              
     e(  3 -  3) =     -9.86500  eV     1   --> A              
     e(  4 -  4) =     -9.67417  eV     1   --> B              
     e(  5 -  5) =      9.68139  eV     1   --> B              
     e(  6 -  6) =     10.56855  eV     1   --> A              
     e(  7 -  7) =     10.60048  eV     1   --> B              
     e(  8 -  8) =     14.31747  eV     1   --> A              

 **************************************************************************

 **************************************************************************

                    xk=(  -0.50000,  -0.02500,   0.97500  )

     Band symmetry, C_2  (2)    point group:

     e(  1 -  1) =    -32.26579  eV     1   --> A              
     e(  2 -  2) =     -9.86886  eV     1   --> B              
     e(  3 -  3) =     -9.86342  eV     1   --> A              
     e(  4 -  4) =     -9.67222  eV     1   --> B              
     e(  5 -  5) =      9.62807  eV     1   --> B              
     e(  6 -  6) =     10.54488  eV     1   --> A              
     e(  7 -  7) =     10.66688  eV     1   --> B              
     e(  8 -  8) =     14.34907  eV     1   --> A              

 **************************************************************************

 **************************************************************************

                    xk=(  -0.50000,  -0.03750,   0.96250  )

     Band symmetry, C_2  (2)    point group:

     e(  1 -  1) =    -32.26601  eV     1   --> A              
     e(  2 -  2) =     -9.87289  eV     1   --> B              
     e(  3 -  3) =     -9.86078  eV     1   --> A              
     e(  4 -  4) =     -9.66910  eV     1   --> B              
     e(  5 -  5) =      9.55212  eV     1   --> B              
     e(  6 -  6) =     10.50637  eV     1   --> A              
     e(  7 -  7) =     10.76462  eV     1   --> B              
     e(  8 -  8) =     14.40079  eV     1   --> A              

 **************************************************************************

 **************************************************************************

                    xk=(  -0.50000,  -0.05000,   0.95000  )

     Band symmetry, C_2  (2)    point group:

     e(  1 -  1) =    -32.26630  eV     1   --> A              
     e(  2 -  2) =     -9.87828  eV     1   --> B              
     e(  3 -  3) =     -9.85711  eV     1   --> A              
     e(  4 -  4) =     -9.66496  eV     1   --> B              
     e(  5 -  5) =      9.46330  eV     1   --> B              
     e(  6 -  6) =     10.45430  eV     1   --> A              
     e(  7 -  7) =     10.88394  eV     1   --> B              
     e(  8 -  8) =     14.47130  eV     1   --> A              

 **************************************************************************

 **************************************************************************

                    xk=(  -0.50000,  -0.06250,   0.93750  )

     Band symmetry, C_2  (2)    point group:

     e(  1 -  1) =    -32.26668  eV     1   --> A              
     e(  2 -  2) =     -9.88487  eV     1   --> B              
     e(  3 -  3) =     -9.85242  eV     1   --> A              
     e(  4 -  4) =     -9.65997  eV     1   --> B              
     e(  5 -  5) =      9.36798  eV     1   --> B              
     e(  6 -  6) =     10.39024  eV     1   --> A              
     e(  7 -  7) =     11.01845  eV     1   --> B              
     e(  8 -  8) =     14.55898  eV     1   --> A              

 **************************************************************************

 **************************************************************************

                    xk=(  -0.50000,  -0.07500,   0.92500  )

     Band symmetry, C_2  (2)    point group:

     e(  1 -  1) =    -32.26714  eV     1   --> A              
     e(  2 -  2) =     -9.89246  eV     1   --> B              
     e(  3 -  3) =     -9.84675  eV     1   --> A              
     e(  4 -  4) =     -9.65431  eV     1   --> B              
     e(  5 -  5) =      9.27000  eV     1   --> B              
     e(  6 -  6) =     10.31588  eV     1   --> A              
     e(  7 -  7) =     11.16430  eV     1   --> B              
     e(  8 -  8) =     14.66207  eV     1   --> A              

 **************************************************************************

 **************************************************************************

                    xk=(  -0.50000,  -0.08750,   0.91250  )

     Band symmetry, C_2  (2)    point group:

     e(  1 -  1) =    -32.26768  eV     1   --> A              
     e(  2 -  2) =     -9.90088  eV     1   --> B              
     e(  3 -  3) =     -9.84013  eV     1   --> A              
     e(  4 -  4) =     -9.64814  eV     1   --> B              
     e(  5 -  5) =      9.17160  eV     1   --> B              
     e(  6 -  6) =     10.23295  eV     1   --> A              
     e(  7 -  7) =     11.31923  eV     1   --> B              
     e(  8 -  8) =     14.77877  eV     1   --> A              

 **************************************************************************

 **************************************************************************

                    xk=(  -0.50000,  -0.10000,   0.90000  )

     Band symmetry, C_2  (2)    point group:

     e(  1 -  1) =    -32.26829  eV     1   --> A              
     e(  2 -  2) =     -9.90996  eV     1   --> B              
     e(  3 -  3) =     -9.83258  eV     1   --> A              
     e(  4 -  4) =     -9.64162  eV     1   --> B              
     e(  5 -  5) =      9.07415  eV     1   --> B              
     e(  6 -  6) =     10.14307  eV     1   --> A              
     e(  7 -  7) =     11.48186  eV     1   --> B              
     e(  8 -  8) =     14.90735  eV     1   --> A              

 **************************************************************************

 **************************************************************************

                    xk=(  -0.50000,  -0.11250,   0.88750  )

     Band symmetry, C_2  (2)    point group:

     e(  1 -  1) =    -32.26897  eV     1   --> A              
     e(  2 -  2) =     -9.91958  eV     1   --> B              
     e(  3 -  3) =     -9.82416  eV     1   --> A              
     e(  4 -  4) =     -9.63485  eV     1   --> B              
     e(  5 -  5) =      8.97850  eV     1   --> B              
     e(  6 -  6) =     10.04773  eV     1   --> A              
     e(  7 -  7) =     11.65130  eV     1   --> B              
     e(  8 -  8) =     15.04618  eV     1   --> A              

 **************************************************************************

 **************************************************************************

                    xk=(  -0.50000,  -0.12500,   0.87500  )

     Band symmetry, C_2  (2)    point group:

     e(  1 -  1) =    -32.26972  eV     1   --> A              
     e(  2 -  2) =     -9.92962  eV     1   --> B              
     e(  3 -  3) =     -9.81491  eV     1   --> A              
     e(  4 -  4) =     -9.62794  eV     1   --> B              
     e(  5 -  5) =      8.88517  eV     1   --> B              
     e(  6 -  6) =      9.94827  eV     1   --> A              
     e(  7 -  7) =     11.82700  eV     1   --> B              
     e(  8 -  8) =     15.19378  eV     1   --> A              

 **************************************************************************

 **************************************************************************

                    xk=(  -0.50000,  -0.13750,   0.86250  )

     Band symmetry, C_2  (2)    point group:

     e(  1 -  1) =    -32.27052  eV     1   --> A              
     e(  2 -  2) =     -9.93996  eV     1   --> B              
     e(  3 -  3) =     -9.80489  eV     1   --> A              
     e(  4 -  4) =     -9.62098  eV     1   --> B              
     e(  5 -  5) =      8.79453  eV     1   --> B              
     e(  6 -  6) =      9.84588  eV     1   --> A              
     e(  7 -  7) =     12.00858  eV     1   --> B              
     e(  8 -  8) =     15.34876  eV     1   --> A              

 **************************************************************************

 **************************************************************************

                    xk=(  -0.50000,  -0.15000,   0.85000  )

     Band symmetry, C_2  (2)    point group:

     e(  1 -  1) =    -32.27139  eV     1   --> A              
     e(  2 -  2) =     -9.95052  eV     1   --> B              
     e(  3 -  3) =     -9.79415  eV     1   --> A              
     e(  4 -  4) =     -9.61403  eV     1   --> B              
     e(  5 -  5) =      8.70679  eV     1   --> B              
     e(  6 -  6) =      9.74158  eV     1   --> A              
     e(  7 -  7) =     12.19577  eV     1   --> B              
     e(  8 -  8) =     15.50989  eV     1   --> A              

 **************************************************************************

 **************************************************************************

                    xk=(  -0.50000,  -0.16250,   0.83750  )

     Band symmetry, C_2  (2)    point group:

     e(  1 -  1) =    -32.27230  eV     1   --> A              
     e(  2 -  2) =     -9.96123  eV     1   --> B              
     e(  3 -  3) =     -9.78275  eV     1   --> A              
     e(  4 -  4) =     -9.60715  eV     1   --> B              
     e(  5 -  5) =      8.62211  eV     1   --> B              
     e(  6 -  6) =      9.63627  eV     1   --> A              
     e(  7 -  7) =     12.38839  eV     1   --> B              
     e(  8 -  8) =     15.67601  eV     1   --> A              

 **************************************************************************

 **************************************************************************

                    xk=(  -0.50000,  -0.17500,   0.82500  )

     Band symmetry, C_2  (2)    point group:

     e(  1 -  1) =    -32.27326  eV     1   --> A              
     e(  2 -  2) =     -9.97201  eV     1   --> B              
     e(  3 -  3) =     -9.77076  eV     1   --> A              
     e(  4 -  4) =     -9.60038  eV     1   --> B              
     e(  5 -  5) =      8.54058  eV     1   --> B              
     e(  6 -  6) =      9.53070  eV     1   --> A              
     e(  7 -  7) =     12.58629  eV     1   --> B              
     e(  8 -  8) =     15.84603  eV     1   --> A              

 **************************************************************************

 **************************************************************************

                    xk=(  -0.50000,  -0.18750,   0.81250  )

     Band symmetry, C_2  (2)    point group:

     e(  1 -  1) =    -32.27425  eV     1   --> A              
     e(  2 -  2) =     -9.98280  eV     1   --> B              
     e(  3 -  3) =     -9.75826  eV     1   --> A              
     e(  4 -  4) =     -9.59375  eV     1   --> B              
     e(  5 -  5) =      8.46226  eV     1   --> B              
     e(  6 -  6) =      9.42556  eV     1   --> A              
     e(  7 -  7) =     12.78937  eV     1   --> B              
     e(  8 -  8) =     16.01894  eV     1   --> A              

 **************************************************************************

 **************************************************************************

                    xk=(  -0.50000,  -0.20000,   0.80000  )

     Band symmetry, C_2  (2)    point group:

     e(  1 -  1) =    -32.27528  eV     1   --> A              
     e(  2 -  2) =     -9.99356  eV     1   --> B              
     e(  3 -  3) =     -9.74531  eV     1   --> A              
     e(  4 -  4) =     -9.58730  eV     1   --> B              
     e(  5 -  5) =      8.38719  eV     1   --> B              
     e(  6 -  6) =      9.32143  eV     1   --> A              
     e(  7 -  7) =     12.99754  eV     1   --> B              
     e(  8 -  8) =     16.19372  eV     1   --> A              

 **************************************************************************

 **************************************************************************

                    xk=(  -0.50000,  -0.21250,   0.78750  )

     Band symmetry, C_2  (2)    point group:

     e(  1 -  1) =    -32.27634  eV     1   --> A              
     e(  2 -  2) =    -10.00422  eV     1   --> B              
     e(  3 -  3) =     -9.73199  eV     1   --> A              
     e(  4 -  4) =     -9.58105  eV     1   --> B              
     e(  5 -  5) =      8.31539  eV     1   --> B              
     e(  6 -  6) =      9.21880  eV     1   --> A              
     e(  7 -  7) =     13.21071  eV     1   --> B              
     e(  8 -  8) =     16.36937  eV     1   --> A              

 **************************************************************************

 **************************************************************************

                    xk=(  -0.50000,  -0.22500,   0.77500  )

     Band symmetry, C_2  (2)    point group:

     e(  1 -  1) =    -32.27741  eV     1   --> A              
[...]

     e(  1 -  1) =    -32.31443  eV     1   --> A_1  L_1       
     e(  2 -  2) =     -9.99075  eV     1   --> A_1  L_1       
     e(  3 -  4) =     -9.49244  eV     2   --> E    L_3       
     e(  5 -  5) =      4.83531  eV     1   --> A_1  L_1       
     e(  6 -  6) =     11.30162  eV     1   --> A_1  L_1       
     e(  7 -  8) =     18.96428  eV     2   --> E    L_3       

 **************************************************************************

 **************************************************************************

                    xk=(  -0.32500,  -0.32500,   0.32500  )

     Band symmetry, C_3v (3m)   point group:

     e(  1 -  1) =    -32.31742  eV     1   --> A_1  L_1       
     e(  2 -  2) =     -9.96770  eV     1   --> A_1  L_1       
     e(  3 -  4) =     -9.48996  eV     2   --> E    L_3       
     e(  5 -  5) =      4.64629  eV     1   --> A_1  L_1       
     e(  6 -  6) =     11.60612  eV     1   --> A_1  L_1       
     e(  7 -  8) =     19.01686  eV     2   --> E    L_3       

 **************************************************************************

 **************************************************************************

                    xk=(  -0.31250,  -0.31250,   0.31250  )

     Band symmetry, C_3v (3m)   point group:

     e(  1 -  1) =    -32.32054  eV     1   --> A_1  L_1       
     e(  2 -  2) =     -9.94355  eV     1   --> A_1  L_1       
     e(  3 -  4) =     -9.48739  eV     2   --> E    L_3       
     e(  5 -  5) =      4.46224  eV     1   --> A_1  L_1       
     e(  6 -  6) =     11.91494  eV     1   --> A_1  L_1       
     e(  7 -  8) =     19.07142  eV     2   --> E    L_3       

 **************************************************************************

 **************************************************************************

                    xk=(  -0.30000,  -0.30000,   0.30000  )

     Band symmetry, C_3v (3m)   point group:

     e(  1 -  1) =    -32.32375  eV     1   --> A_1  L_1       
     e(  2 -  2) =     -9.91842  eV     1   --> A_1  L_1       
     e(  3 -  4) =     -9.48472  eV     2   --> E    L_3       
     e(  5 -  5) =      4.28331  eV     1   --> A_1  L_1       
     e(  6 -  6) =     12.22806  eV     1   --> A_1  L_1       
     e(  7 -  8) =     19.12754  eV     2   --> E    L_3       

 **************************************************************************

 **************************************************************************

                    xk=(  -0.28750,  -0.28750,   0.28750  )

     Band symmetry, C_3v (3m)   point group:

     e(  1 -  1) =    -32.32705  eV     1   --> A_1  L_1       
     e(  2 -  2) =     -9.89244  eV     1   --> A_1  L_1       
     e(  3 -  4) =     -9.48199  eV     2   --> E    L_3       
     e(  5 -  5) =      4.10965  eV     1   --> A_1  L_1       
     e(  6 -  6) =     12.54547  eV     1   --> A_1  L_1       
     e(  7 -  8) =     19.18476  eV     2   --> E    L_3       

 **************************************************************************

 **************************************************************************

                    xk=(  -0.27500,  -0.27500,   0.27500  )

     Band symmetry, C_3v (3m)   point group:

     e(  1 -  1) =    -32.33040  eV     1   --> A_1  L_1       
     e(  2 -  2) =     -9.86577  eV     1   --> A_1  L_1       
     e(  3 -  4) =     -9.47920  eV     2   --> E    L_3       
     e(  5 -  5) =      3.94142  eV     1   --> A_1  L_1       
     e(  6 -  6) =     12.86712  eV     1   --> A_1  L_1       
     e(  7 -  8) =     19.24259  eV     2   --> E    L_3       

 **************************************************************************

 **************************************************************************

                    xk=(  -0.26250,  -0.26250,   0.26250  )

     Band symmetry, C_3v (3m)   point group:

     e(  1 -  1) =    -32.33380  eV     1   --> A_1  L_1       
     e(  2 -  2) =     -9.83855  eV     1   --> A_1  L_1       
     e(  3 -  4) =     -9.47637  eV     2   --> E    L_3       
     e(  5 -  5) =      3.77878  eV     1   --> A_1  L_1       
     e(  6 -  6) =     13.19296  eV     1   --> A_1  L_1       
     e(  7 -  8) =     19.30053  eV     2   --> E    L_3       

 **************************************************************************

 **************************************************************************

                    xk=(  -0.25000,  -0.25000,   0.25000  )

     Band symmetry, C_3v (3m)   point group:

     e(  1 -  1) =    -32.33722  eV     1   --> A_1  L_1       
     e(  2 -  2) =     -9.81094  eV     1   --> A_1  L_1       
     e(  3 -  4) =     -9.47352  eV     2   --> E    L_3       
     e(  5 -  5) =      3.62192  eV     1   --> A_1  L_1       
     e(  6 -  6) =     13.52295  eV     1   --> A_1  L_1       
     e(  7 -  8) =     19.35809  eV     2   --> E    L_3       

 **************************************************************************

 **************************************************************************

                    xk=(  -0.23750,  -0.23750,   0.23750  )

     Band symmetry, C_3v (3m)   point group:

     e(  1 -  1) =    -32.34063  eV     1   --> A_1  L_1       
     e(  2 -  2) =     -9.78309  eV     1   --> A_1  L_1       
     e(  3 -  4) =     -9.47067  eV     2   --> E    L_3       
     e(  5 -  5) =      3.47100  eV     1   --> A_1  L_1       
     e(  6 -  6) =     13.85698  eV     1   --> A_1  L_1       
     e(  7 -  8) =     19.41473  eV     2   --> E    L_3       

 **************************************************************************

 **************************************************************************

                    xk=(  -0.22500,  -0.22500,   0.22500  )

     Band symmetry, C_3v (3m)   point group:

     e(  1 -  1) =    -32.34402  eV     1   --> A_1  L_1       
     e(  2 -  2) =     -9.75519  eV     1   --> A_1  L_1       
     e(  3 -  4) =     -9.46783  eV     2   --> E    L_3       
     e(  5 -  5) =      3.32621  eV     1   --> A_1  L_1       
     e(  6 -  6) =     14.19496  eV     1   --> A_1  L_1       
     e(  7 -  8) =     19.46997  eV     2   --> E    L_3       

 **************************************************************************

 **************************************************************************

                    xk=(  -0.21250,  -0.21250,   0.21250  )

     Band symmetry, C_3v (3m)   point group:

     e(  1 -  1) =    -32.34737  eV     1   --> A_1  L_1       
     e(  2 -  2) =     -9.72740  eV     1   --> A_1  L_1       
     e(  3 -  4) =     -9.46502  eV     2   --> E    L_3       
     e(  5 -  5) =      3.18775  eV     1   --> A_1  L_1       
     e(  6 -  6) =     14.53676  eV     1   --> A_1  L_1       
     e(  7 -  8) =     19.52333  eV     2   --> E    L_3       

 **************************************************************************

 **************************************************************************

                    xk=(  -0.20000,  -0.20000,   0.20000  )

     Band symmetry, C_3v (3m)   point group:

     e(  1 -  1) =    -32.35065  eV     1   --> A_1  L_1       
     e(  2 -  2) =     -9.69990  eV     1   --> A_1  L_1       
     e(  3 -  4) =     -9.46227  eV     2   --> E    L_3       
     e(  5 -  5) =      3.05580  eV     1   --> A_1  L_1       
     e(  6 -  6) =     14.88219  eV     1   --> A_1  L_1       
     e(  7 -  8) =     19.57437  eV     2   --> E    L_3       

 **************************************************************************

 **************************************************************************

                    xk=(  -0.18750,  -0.18750,   0.18750  )

     Band symmetry, C_3v (3m)   point group:

     e(  1 -  1) =    -32.35385  eV     1   --> A_1  L_1       
     e(  2 -  2) =     -9.67287  eV     1   --> A_1  L_1       
     e(  3 -  4) =     -9.45958  eV     2   --> E    L_3       
     e(  5 -  5) =      2.93056  eV     1   --> A_1  L_1       
     e(  6 -  6) =     15.23105  eV     1   --> A_1  L_1       
     e(  7 -  8) =     19.62270  eV     2   --> E    L_3       

 **************************************************************************

 **************************************************************************

                    xk=(  -0.17500,  -0.17500,   0.17500  )

     Band symmetry, C_3v (3m)   point group:

     e(  1 -  1) =    -32.35694  eV     1   --> A_1  L_1       
     e(  2 -  2) =     -9.64649  eV     1   --> A_1  L_1       
     e(  3 -  4) =     -9.45698  eV     2   --> E    L_3       
     e(  5 -  5) =      2.81223  eV     1   --> A_1  L_1       
     e(  6 -  6) =     15.58308  eV     1   --> A_1  L_1       
     e(  7 -  8) =     19.66799  eV     2   --> E    L_3       

 **************************************************************************

 **************************************************************************

                    xk=(  -0.16250,  -0.16250,   0.16250  )

     Band symmetry, C_3v (3m)   point group:

     e(  1 -  1) =    -32.35991  eV     1   --> A_1  L_1       
     e(  2 -  2) =     -9.62095  eV     1   --> A_1  L_1       
     e(  3 -  4) =     -9.45447  eV     2   --> E    L_3       
     e(  5 -  5) =      2.70100  eV     1   --> A_1  L_1       
     e(  6 -  6) =     15.93795  eV     1   --> A_1  L_1       
     e(  7 -  8) =     19.71000  eV     2   --> E    L_3       

 **************************************************************************

 **************************************************************************

                    xk=(  -0.15000,  -0.15000,   0.15000  )

     Band symmetry, C_3v (3m)   point group:

     e(  1 -  1) =    -32.36274  eV     1   --> A_1  L_1       
     e(  2 -  2) =     -9.59641  eV     1   --> A_1  L_1       
     e(  3 -  4) =     -9.45208  eV     2   --> E    L_3       
     e(  5 -  5) =      2.59707  eV     1   --> A_1  L_1       
     e(  6 -  6) =     16.29525  eV     1   --> A_1  L_1       
     e(  7 -  8) =     19.74853  eV     2   --> E    L_3       

 **************************************************************************

 **************************************************************************

                    xk=(  -0.13750,  -0.13750,   0.13750  )

     Band symmetry, C_3v (3m)   point group:

     e(  1 -  1) =    -32.36541  eV     1   --> A_1  L_1       
     e(  2 -  2) =     -9.57306  eV     1   --> A_1  L_1       
     e(  3 -  4) =     -9.44983  eV     2   --> E    L_3       
     e(  5 -  5) =      2.50061  eV     1   --> A_1  L_1       
     e(  6 -  6) =     16.65446  eV     1   --> A_1  L_1       
     e(  7 -  8) =     19.78347  eV     2   --> E    L_3       

 **************************************************************************

 **************************************************************************

                    xk=(  -0.12500,  -0.12500,   0.12500  )

     Band symmetry, C_3v (3m)   point group:

     e(  1 -  1) =    -32.36790  eV     1   --> A_1  L_1       
     e(  2 -  2) =     -9.55108  eV     1   --> A_1  L_1       
     e(  3 -  4) =     -9.44771  eV     2   --> E    L_3       
     e(  5 -  5) =      2.41184  eV     1   --> A_1  L_1       
     e(  6 -  6) =     17.01492  eV     1   --> A_1  L_1       
     e(  7 -  8) =     19.81480  eV     2   --> E    L_3       

 **************************************************************************

 **************************************************************************

                    xk=(  -0.11250,  -0.11250,   0.11250  )

     Band symmetry, C_3v (3m)   point group:

     e(  1 -  1) =    -32.37021  eV     1   --> A_1  L_1       
     e(  2 -  2) =     -9.53061  eV     1   --> A_1  L_1       
     e(  3 -  4) =     -9.44576  eV     2   --> E    L_3       
     e(  5 -  5) =      2.33091  eV     1   --> A_1  L_1       
     e(  6 -  6) =     17.37577  eV     1   --> A_1  L_1       
     e(  7 -  8) =     19.84254  eV     2   --> E    L_3       

 **************************************************************************

 **************************************************************************

                    xk=(  -0.10000,  -0.10000,   0.10000  )

     Band symmetry, C_3v (3m)   point group:

     e(  1 -  1) =    -32.37231  eV     1   --> A_1  L_1       
     e(  2 -  2) =     -9.51184  eV     1   --> A_1  L_1       
     e(  3 -  4) =     -9.44397  eV     2   --> E    L_3       
     e(  5 -  5) =      2.25799  eV     1   --> A_1  L_1       
     e(  6 -  6) =     17.73584  eV     1   --> A_1  L_1       
     e(  7 -  8) =     19.86677  eV     2   --> E    L_3       

 **************************************************************************

 **************************************************************************

                    xk=(  -0.08750,  -0.08750,   0.08750  )

     Band symmetry, C_3v (3m)   point group:

     e(  1 -  1) =    -32.37419  eV     1   --> A_1  L_1       
     e(  2 -  2) =     -9.49489  eV     1   --> A_1  L_1       
     e(  3 -  4) =     -9.44237  eV     2   --> E    L_3       
     e(  5 -  5) =      2.19325  eV     1   --> A_1  L_1       
     e(  6 -  6) =     18.09352  eV     1   --> A_1  L_1       
     e(  7 -  8) =     19.88762  eV     2   --> E    L_3       

 **************************************************************************

 **************************************************************************

                    xk=(  -0.07500,  -0.07500,   0.07500  )

     Band symmetry, C_3v (3m)   point group:

     e(  1 -  1) =    -32.37585  eV     1   --> A_1  L_1       
     e(  2 -  2) =     -9.47991  eV     1   --> A_1  L_1       
     e(  3 -  4) =     -9.44096  eV     2   --> E    L_3       
     e(  5 -  5) =      2.13683  eV     1   --> A_1  L_1       
     e(  6 -  6) =     18.44646  eV     1   --> A_1  L_1       
     e(  7 -  8) =     19.90524  eV     2   --> E    L_3       

 **************************************************************************

 **************************************************************************

                    xk=(  -0.06250,  -0.06250,   0.06250  )

     Band symmetry, C_3v (3m)   point group:

     e(  1 -  1) =    -32.37727  eV     1   --> A_1  L_1       
     e(  2 -  2) =     -9.46702  eV     1   --> A_1  L_1       
     e(  3 -  4) =     -9.43975  eV     2   --> E    L_3       
     e(  5 -  5) =      2.08886  eV     1   --> A_1  L_1       
     e(  6 -  6) =     18.79106  eV     1   --> A_1  L_1       
     e(  7 -  8) =     19.91978  eV     2   --> E    L_3       

 **************************************************************************

 **************************************************************************

                    xk=(  -0.05000,  -0.05000,   0.05000  )

     Band symmetry, C_3v (3m)   point group:

     e(  1 -  1) =    -32.37845  eV     1   --> A_1  L_1       
     e(  2 -  2) =     -9.45632  eV     1   --> A_1  L_1       
     e(  3 -  4) =     -9.43876  eV     2   --> E    L_3       
     e(  5 -  5) =      2.04945  eV     1   --> A_1  L_1       
     e(  6 -  6) =     19.12151  eV     1   --> A_1  L_1       
     e(  7 -  8) =     19.93142  eV     2   --> E    L_3       

 **************************************************************************

 **************************************************************************

                    xk=(  -0.03750,  -0.03750,   0.03750  )

     Band symmetry, C_3v (3m)   point group:

     e(  1 -  1) =    -32.37937  eV     1   --> A_1  L_1       
     e(  2 -  2) =     -9.44790  eV     1   --> A_1  L_1       
     e(  3 -  4) =     -9.43797  eV     2   --> E    L_3       
     e(  5 -  5) =      2.01870  eV     1   --> A_1  L_1       
     e(  6 -  6) =     19.42770  eV     1   --> A_1  L_1       
     e(  7 -  8) =     19.94029  eV     2   --> E    L_3       

 **************************************************************************

 **************************************************************************

                    xk=(  -0.02500,  -0.02500,   0.02500  )

     Band symmetry, C_3v (3m)   point group:

     e(  1 -  1) =    -32.38003  eV     1   --> A_1  L_1       
     e(  2 -  2) =     -9.44184  eV     1   --> A_1  L_1       
     e(  3 -  4) =     -9.43741  eV     2   --> E    L_3       
     e(  5 -  5) =      1.99668  eV     1   --> A_1  L_1       
     e(  6 -  6) =     19.69137  eV     1   --> A_1  L_1       
     e(  7 -  8) =     19.94653  eV     2   --> E    L_3       

 **************************************************************************

 **************************************************************************

                    xk=(  -0.01250,  -0.01250,   0.01250  )

     Band symmetry, C_3v (3m)   point group:

     e(  1 -  1) =    -32.38043  eV     1   --> A_1  L_1       
     e(  2 -  2) =     -9.43818  eV     1   --> A_1  L_1       
     e(  3 -  4) =     -9.43707  eV     2   --> E    L_3       
     e(  5 -  5) =      1.98345  eV     1   --> A_1  L_1       
     e(  6 -  6) =     19.88045  eV     1   --> A_1  L_1       
     e(  7 -  8) =     19.95024  eV     2   --> E    L_3       

 **************************************************************************

 **************************************************************************

                    xk=(   0.00000,   0.00000,   0.00000  )

     point group O_h (m-3m) 
     there are 10 classes
     the character table:

       E     8C3   3C2   6C4   6C2'  i     8S6   3s_h  6S4   6s_d 
A_1g   1.00  1.00  1.00  1.00  1.00  1.00  1.00  1.00  1.00  1.00
A_2g   1.00  1.00  1.00 -1.00 -1.00  1.00  1.00  1.00 -1.00 -1.00
E_g    2.00 -1.00  2.00  0.00  0.00  2.00 -1.00  2.00  0.00  0.00
T_1g   3.00  0.00 -1.00  1.00 -1.00  3.00  0.00 -1.00  1.00 -1.00
T_2g   3.00  0.00 -1.00 -1.00  1.00  3.00  0.00 -1.00 -1.00  1.00
A_1u   1.00  1.00  1.00  1.00  1.00 -1.00 -1.00 -1.00 -1.00 -1.00
A_2u   1.00  1.00  1.00 -1.00 -1.00 -1.00 -1.00 -1.00  1.00  1.00
E_u    2.00 -1.00  2.00  0.00  0.00 -2.00  1.00 -2.00  0.00  0.00
T_1u   3.00  0.00 -1.00  1.00 -1.00 -3.00  0.00  1.00 -1.00  1.00
T_2u   3.00  0.00 -1.00 -1.00  1.00 -3.00  0.00  1.00  1.00 -1.00

     the symmetry operations in each class and the name of the first element:

     E        1
                                                                 
     8C3     17   19   20   18   24   21   22   23
                                                                 
     3C2      2    4    3
                                                                 
     6C4      7    8   15   16   12   11
                                                                 
     6C2'     5    6   14   13   10    9
                                                                 
     i       25
                                                                 
     8S6     41   43   44   42   48   45   46   47
                                                                 
     3s_h    26   28   27
                                                                 
     6S4     31   32   39   40   36   35
                                                                 
     6s_d    29   30   38   37   34   33
                                                                 

     Band symmetry, O_h (m-3m)  point group:

     e(  1 -  1) =    -32.38056  eV     1   --> A_1g G_1   G_1+
     e(  2 -  4) =     -9.43696  eV     3   --> T_1u G_15  G_4-
     e(  5 -  5) =      1.97903  eV     1   --> A_1g G_1   G_1+
     e(  6 -  8) =     19.95146  eV     3   --> T_2g G_25' G_5+

 **************************************************************************

     BANDS        :      8.83s CPU      8.91s WALL


   This run was terminated on:  13:33:45  18Nov2024            

=------------------------------------------------------------------------------=
   JOB DONE.
=------------------------------------------------------------------------------=
