
     Program PWSCF v.7.3 starts on 18Nov2024 at 12:10:56 

     This program is part of the open-source Quantum ESPRESSO suite
     for quantum simulation of materials; please cite
         "P. Giannozzi et al., J. Phys.:Condens. Matter 21 395502 (2009);
         "P. Giannozzi et al., J. Phys.:Condens. Matter 29 465901 (2017);
         "P. Giannozzi et al., J. Chem. Phys. 152 154105 (2020);
          URL http://www.quantum-espresso.org", 
     in publications or presentations arising from this work. More details at
     http://www.quantum-espresso.org/quote

     Serial version
     6411 MiB available memory on the printing compute node when the environment starts

     Waiting for input...
     Reading input from standard input

     Current dimensions of program PWSCF are:
     Max number of different atomic species (ntypx) = 10
     Max number of k-points (npk) =  40000
     Max angular momentum in pseudopotentials (lmaxx) =  4

     Atomic positions and unit cell read from directory:
     ./tmp/neon.save/



     G-vector sticks info
     --------------------
     sticks:   dense  smooth     PW     G-vecs:    dense   smooth      PW
     Sum         769     769    241                14361    14361    2445

     Using Slab Decomposition



     bravais-lattice index     =            2
     lattice parameter (alat)  =       8.4300  a.u.
     unit-cell volume          =     149.7693 (a.u.)^3
     number of atoms/cell      =            1
     number of atomic types    =            1
     number of electrons       =         8.00
     number of Kohn-Sham states=            8
     kinetic-energy cutoff     =      80.0000  Ry
     charge density cutoff     =     320.0000  Ry
     Exchange-correlation= SLA  PW   NOGX NOGC
                           (   1   4   0   0   0   0   0)

     celldm(1)=   8.430000  celldm(2)=   0.000000  celldm(3)=   0.000000
     celldm(4)=   0.000000  celldm(5)=   0.000000  celldm(6)=   0.000000

     crystal axes: (cart. coord. in units of alat)
               a(1) = (  -0.500000   0.000000   0.500000 )  
               a(2) = (   0.000000   0.500000   0.500000 )  
               a(3) = (  -0.500000   0.500000   0.000000 )  

     reciprocal axes: (cart. coord. in units 2 pi/alat)
               b(1) = ( -1.000000 -1.000000  1.000000 )  
               b(2) = (  1.000000  1.000000  1.000000 )  
               b(3) = ( -1.000000  1.000000 -1.000000 )  


     PseudoPot. # 1 for Ne read from file:
     ./PSEUDO/Ne.LDA.upf
     MD5 check sum: 4fe887f722f2cdc4cea4a66ab59ea4d3
     Pseudo is Norm-conserving, Zval =  8.0
     Generated using ONCVPSP code by D. R. Hamann
     Using radial grid of  750 points,  4 beta functions with: 
                l(1) =   0
                l(2) =   0
                l(3) =   1
                l(4) =   1

     atomic species   valence    mass     pseudopotential
     Ne                8.00    20.18000     Ne( 1.00)

     48 Sym. Ops., with inversion, found



   Cartesian axes

     site n.     atom                  positions (alat units)
         1        Ne     tau(   1) = (   0.0000000   0.0000000   0.0000000  )

     number of k points=    72 (tetrahedron method)
                       cart. coord. in units 2pi/alat
        k(    1) = (   0.0000000   0.0000000   0.0000000), wk =   0.0011574
        k(    2) = (  -0.0833333   0.0833333  -0.0833333), wk =   0.0092593
        k(    3) = (  -0.1666667   0.1666667  -0.1666667), wk =   0.0092593
        k(    4) = (  -0.2500000   0.2500000  -0.2500000), wk =   0.0092593
        k(    5) = (  -0.3333333   0.3333333  -0.3333333), wk =   0.0092593
        k(    6) = (  -0.4166667   0.4166667  -0.4166667), wk =   0.0092593
        k(    7) = (   0.5000000  -0.5000000   0.5000000), wk =   0.0046296
        k(    8) = (   0.0000000   0.1666667   0.0000000), wk =   0.0069444
        k(    9) = (  -0.0833333   0.2500000  -0.0833333), wk =   0.0277778
        k(   10) = (  -0.1666667   0.3333333  -0.1666667), wk =   0.0277778
        k(   11) = (  -0.2500000   0.4166667  -0.2500000), wk =   0.0277778
        k(   12) = (  -0.3333333   0.5000000  -0.3333333), wk =   0.0277778
        k(   13) = (   0.5833333  -0.4166667   0.5833333), wk =   0.0277778
        k(   14) = (   0.5000000  -0.3333333   0.5000000), wk =   0.0277778
        k(   15) = (   0.4166667  -0.2500000   0.4166667), wk =   0.0277778
        k(   16) = (   0.3333333  -0.1666667   0.3333333), wk =   0.0277778
        k(   17) = (   0.2500000  -0.0833333   0.2500000), wk =   0.0277778
        k(   18) = (   0.1666667  -0.0000000   0.1666667), wk =   0.0138889
        k(   19) = (   0.0000000   0.3333333   0.0000000), wk =   0.0069444
        k(   20) = (  -0.0833333   0.4166667  -0.0833333), wk =   0.0277778
        k(   21) = (  -0.1666667   0.5000000  -0.1666667), wk =   0.0277778
        k(   22) = (  -0.2500000   0.5833333  -0.2500000), wk =   0.0277778
        k(   23) = (   0.6666667  -0.3333333   0.6666667), wk =   0.0277778
        k(   24) = (   0.5833333  -0.2500000   0.5833333), wk =   0.0277778
        k(   25) = (   0.5000000  -0.1666667   0.5000000), wk =   0.0277778
        k(   26) = (   0.4166667  -0.0833333   0.4166667), wk =   0.0277778
        k(   27) = (   0.3333333   0.0000000   0.3333333), wk =   0.0138889
        k(   28) = (   0.0000000   0.5000000   0.0000000), wk =   0.0069444
        k(   29) = (  -0.0833333   0.5833333  -0.0833333), wk =   0.0277778
        k(   30) = (  -0.1666667   0.6666667  -0.1666667), wk =   0.0277778
        k(   31) = (   0.7500000  -0.2500000   0.7500000), wk =   0.0277778
        k(   32) = (   0.6666667  -0.1666667   0.6666667), wk =   0.0277778
        k(   33) = (   0.5833333  -0.0833333   0.5833333), wk =   0.0277778
        k(   34) = (   0.5000000   0.0000000   0.5000000), wk =   0.0138889
        k(   35) = (   0.0000000   0.6666667   0.0000000), wk =   0.0069444
        k(   36) = (  -0.0833333   0.7500000  -0.0833333), wk =   0.0277778
        k(   37) = (   0.8333333  -0.1666667   0.8333333), wk =   0.0277778
        k(   38) = (   0.7500000  -0.0833333   0.7500000), wk =   0.0277778
        k(   39) = (   0.6666667   0.0000000   0.6666667), wk =   0.0138889
        k(   40) = (   0.0000000   0.8333333   0.0000000), wk =   0.0069444
        k(   41) = (   0.9166667  -0.0833333   0.9166667), wk =   0.0277778
        k(   42) = (   0.8333333   0.0000000   0.8333333), wk =   0.0138889
        k(   43) = (   0.0000000  -1.0000000   0.0000000), wk =   0.0034722
        k(   44) = (  -0.1666667   0.3333333   0.0000000), wk =   0.0277778
        k(   45) = (  -0.2500000   0.4166667  -0.0833333), wk =   0.0555556
        k(   46) = (  -0.3333333   0.5000000  -0.1666667), wk =   0.0555556
        k(   47) = (   0.5833333  -0.4166667   0.7500000), wk =   0.0555556
        k(   48) = (   0.5000000  -0.3333333   0.6666667), wk =   0.0277778
        k(   49) = (  -0.1666667   0.5000000   0.0000000), wk =   0.0277778
        k(   50) = (  -0.2500000   0.5833333  -0.0833333), wk =   0.0555556
        k(   51) = (   0.6666667  -0.3333333   0.8333333), wk =   0.0555556
        k(   52) = (   0.5833333  -0.2500000   0.7500000), wk =   0.0555556
        k(   53) = (   0.5000000  -0.1666667   0.6666667), wk =   0.0555556
        k(   54) = (   0.4166667  -0.0833333   0.5833333), wk =   0.0555556
        k(   55) = (   0.3333333   0.0000000   0.5000000), wk =   0.0277778
        k(   56) = (  -0.1666667   0.6666667  -0.0000000), wk =   0.0277778
        k(   57) = (   0.7500000  -0.2500000   0.9166667), wk =   0.0555556
        k(   58) = (   0.6666667  -0.1666667   0.8333333), wk =   0.0555556
        k(   59) = (   0.5833333  -0.0833333   0.7500000), wk =   0.0555556
        k(   60) = (   0.5000000   0.0000000   0.6666667), wk =   0.0277778
        k(   61) = (   0.8333333  -0.1666667   1.0000000), wk =   0.0277778
        k(   62) = (   0.7500000  -0.0833333   0.9166667), wk =   0.0555556
        k(   63) = (   0.6666667   0.0000000   0.8333333), wk =   0.0277778
        k(   64) = (  -0.1666667  -1.0000000   0.0000000), wk =   0.0138889
        k(   65) = (   0.6666667  -0.3333333   1.0000000), wk =   0.0277778
        k(   66) = (   0.5833333  -0.2500000   0.9166667), wk =   0.0555556
        k(   67) = (   0.5000000  -0.1666667   0.8333333), wk =   0.0277778
        k(   68) = (   0.6666667  -0.1666667   1.0000000), wk =   0.0277778
        k(   69) = (   0.5833333  -0.0833333   0.9166667), wk =   0.0555556
        k(   70) = (   0.5000000   0.0000000   0.8333333), wk =   0.0277778
        k(   71) = (  -0.3333333  -1.0000000   0.0000000), wk =   0.0138889
        k(   72) = (  -0.5000000  -1.0000000   0.0000000), wk =   0.0069444

     Dense  grid:    14361 G-vectors     FFT dimensions: (  36,  36,  36)

     Estimated max dynamical RAM per process >       6.84 MB

     The potential is recalculated from file :
     ./tmp/neon.save/charge-density

     Starting wfcs are    4 randomized atomic wfcs +    4 random wfcs

     Band Structure Calculation
     Davidson diagonalization with overlap

     ethr =  1.25E-08,  avg # of iterations = 15.4

     total cpu time spent up to now is        6.6 secs

     End of band structure calculation

          k = 0.0000 0.0000 0.0000 (  1837 PWs)   bands (ev):

   -32.3807  -9.4371  -9.4371  -9.4371   1.9790  19.9514  19.9514  19.9514

          k =-0.0833 0.0833-0.0833 (  1823 PWs)   bands (ev):

   -32.3749  -9.4898  -9.4420  -9.4420   2.1735  18.2118  19.8938  19.8938

          k =-0.1667 0.1667-0.1667 (  1820 PWs)   bands (ev):

   -32.3590  -9.6295  -9.4554  -9.4554   2.7372  15.8193  19.6963  19.6963

          k =-0.2500 0.2500-0.2500 (  1820 PWs)   bands (ev):

   -32.3373  -9.8110  -9.4736  -9.4736   3.6219  13.5229  19.3581  19.3581

          k =-0.3333 0.3333-0.3333 (  1829 PWs)   bands (ev):

   -32.3155  -9.9833  -9.4917  -9.4917   4.7717  11.4026  18.9815  18.9815

          k =-0.4167 0.4167-0.4167 (  1817 PWs)   bands (ev):

   -32.2995 -10.1042  -9.5049  -9.5049   6.1390   9.4743  18.7001  18.7001

          k = 0.5000-0.5000 0.5000 (  1802 PWs)   bands (ev):

   -32.2936 -10.1474  -9.5097  -9.5097   7.5278   7.9025  18.5976  18.5976

          k = 0.0000 0.1667 0.0000 (  1828 PWs)   bands (ev):

   -32.3730  -9.4910  -9.4516  -9.4516   2.2376  18.4012  19.4379  19.4379

          k =-0.0833 0.2500-0.0833 (  1824 PWs)   bands (ev):

   -32.3605  -9.5944  -9.4692  -9.4614   2.6761  16.5594  19.0457  19.2207

          k =-0.1667 0.3333-0.1667 (  1817 PWs)   bands (ev):

   -32.3408  -9.7570  -9.4898  -9.4773   3.4501  14.3239  18.5621  18.7174

          k =-0.2500 0.4167-0.2500 (  1828 PWs)   bands (ev):

   -32.3190  -9.9263  -9.5079  -9.4996   4.5064  12.1792  17.8881  18.4680

          k =-0.3333 0.5000-0.3333 (  1815 PWs)   bands (ev):

   -32.3011 -10.0589  -9.5222  -9.5188   5.7944  10.2059  17.3860  18.3381

          k = 0.5833-0.4167 0.5833 (  1811 PWs)   bands (ev):

   -32.2918 -10.1249  -9.5391  -9.5195   7.2555   8.4416  17.0685  18.3785

          k = 0.5000-0.3333 0.5000 (  1816 PWs)   bands (ev):

   -32.2938 -10.1107  -9.5454  -9.5100   6.7580   9.0008  16.9340  18.6324

          k = 0.4167-0.2500 0.4167 (  1819 PWs)   bands (ev):

   -32.3064 -10.0196  -9.5393  -9.4927   5.3426  10.8454  16.9910  19.1219

          k = 0.3333-0.1667 0.3333 (  1828 PWs)   bands (ev):

   -32.3262  -9.8715  -9.5218  -9.4722   4.1267  12.8740  17.2551  19.8217

          k = 0.2500-0.0833 0.2500 (  1824 PWs)   bands (ev):

   -32.3480  -9.7024  -9.4964  -9.4539   3.1583  15.0288  17.7563  20.4765

          k = 0.1667-0.0000 0.1667 (  1823 PWs)   bands (ev):

   -32.3658  -9.5605  -9.4671  -9.4429   2.4902  17.0260  18.6552  20.3657

          k = 0.0000 0.3333 0.0000 (  1816 PWs)   bands (ev):

   -32.3519  -9.6285  -9.4914  -9.4914   2.9793  16.5938  18.5443  18.5443

          k =-0.0833 0.4167-0.0833 (  1813 PWs)   bands (ev):

   -32.3356  -9.7426  -9.5162  -9.5134   3.6214  15.0994  17.2642  18.1792

          k =-0.1667 0.5000-0.1667 (  1821 PWs)   bands (ev):

   -32.3159  -9.8814  -9.5422  -9.5368   4.5582  13.0950  16.2775  17.9438

          k =-0.2500 0.5833-0.2500 (  1810 PWs)   bands (ev):

   -32.2980  -9.9991  -9.5788  -9.5477   5.7411  11.1388  15.5944  17.8488

          k = 0.6667-0.3333 0.6667 (  1807 PWs)   bands (ev):

   -32.2868 -10.0673  -9.6137  -9.5462   7.1154   9.3576  15.1124  17.9210

          k = 0.5833-0.2500 0.5833 (  1804 PWs)   bands (ev):

   -32.2853 -10.0728  -9.6360  -9.5326   7.5798   8.8456  14.8111  18.1947

          k = 0.5000-0.1667 0.5000 (  1811 PWs)   bands (ev):

   -32.2940 -10.0176  -9.6366  -9.5105   6.1848  10.5414  14.7212  18.7023

          k = 0.4167-0.0833 0.4167 (  1819 PWs)   bands (ev):

   -32.3104  -9.9185  -9.6104  -9.4858   4.9320  12.4051  14.9356  19.4661

          k = 0.3333 0.0000 0.3333 (  1817 PWs)   bands (ev):

   -32.3302  -9.8037  -9.5588  -9.4651   3.9061  14.0529  15.8116  20.4597

          k = 0.0000 0.5000 0.0000 (  1812 PWs)   bands (ev):

   -32.3233  -9.7963  -9.5457  -9.5457   4.1219  15.1532  16.1210  17.7838

          k =-0.0833 0.5833-0.0833 (  1810 PWs)   bands (ev):

   -32.3070  -9.8884  -9.5787  -9.5705   4.9201  13.9280  14.8424  17.5315

          k =-0.1667 0.6667-0.1667 (  1802 PWs)   bands (ev):

   -32.2911  -9.9690  -9.6286  -9.5838   5.9753  12.1385  14.0259  17.4238

          k = 0.7500-0.2500 0.7500 (  1804 PWs)   bands (ev):

   -32.2799 -10.0098  -9.6908  -9.5824   7.2361  10.4278  13.3957  17.4728

          k = 0.6667-0.1667 0.6667 (  1814 PWs)   bands (ev):

   -32.2765 -10.0048  -9.7455  -9.5665   8.3197   9.2285  12.9301  17.6981

          k = 0.5833-0.0833 0.5833 (  1806 PWs)   bands (ev):

   -32.2817  -9.9732  -9.7603  -9.5403   7.2381  10.4950  12.7054  18.1194

          k = 0.5000 0.0000 0.5000 (  1812 PWs)   bands (ev):

   -32.2941  -9.9470  -9.7062  -9.5108   5.9897  11.8834  13.1387  18.7373

          k = 0.0000 0.6667 0.0000 (  1804 PWs)   bands (ev):

   -32.2947  -9.9438  -9.6000  -9.6000   5.5718  13.5319  14.1173  17.2563

          k =-0.0833 0.7500-0.0833 (  1799 PWs)   bands (ev):

   -32.2822  -9.9969  -9.6375  -9.6175   6.4841  12.3270  13.3348  17.1219

          k = 0.8333-0.1667 0.8333 (  1791 PWs)   bands (ev):

   -32.2730 -10.0102  -9.7061  -9.6184   7.6146  11.1371  12.3331  17.1328

          k = 0.7500-0.0833 0.7500 (  1808 PWs)   bands (ev):

   -32.2696  -9.9702  -9.7979  -9.6025   8.7906  10.0608  11.5083  17.2988

          k = 0.6667 0.0000 0.6667 (  1798 PWs)   bands (ev):

   -32.2727  -9.8965  -9.8784  -9.5739   8.3910  10.4686  11.2474  17.6296

          k = 0.0000 0.8333 0.0000 (  1772 PWs)   bands (ev):

   -32.2738 -10.0406  -9.6396  -9.6396   7.2477  11.2395  13.4942  16.9554

          k = 0.9167-0.0833 0.9167 (  1791 PWs)   bands (ev):

   -32.2680 -10.0528  -9.6724  -9.6446   8.2309  10.2569  12.9087  16.9270

          k = 0.8333 0.0000 0.8333 (  1802 PWs)   bands (ev):

   -32.2664 -10.0193  -9.7387  -9.6310   9.1618   9.6911  11.8874  17.0401

          k = 0.0000-1.0000 0.0000 (  1772 PWs)   bands (ev):

   -32.2661 -10.0739  -9.6541  -9.6541   8.8498   9.4456  13.2863  16.8586

          k =-0.1667 0.3333 0.0000 (  1811 PWs)   bands (ev):

   -32.3461  -9.6916  -9.5095  -9.4697   3.2172  15.4704  17.2802  19.9417

          k =-0.2500 0.4167-0.0833 (  1820 PWs)   bands (ev):

   -32.3264  -9.8287  -9.5495  -9.4852   4.0717  13.6791  16.2593  19.1985

          k =-0.3333 0.5000-0.1667 (  1812 PWs)   bands (ev):

   -32.3066  -9.9637  -9.5789  -9.5067   5.1889  11.6909  15.7913  18.5034

          k = 0.5833-0.4167 0.7500 (  1810 PWs)   bands (ev):

   -32.2920 -10.0600  -9.5958  -9.5258   6.5191   9.8226  15.5752  18.0517

          k = 0.5000-0.3333 0.6667 (  1800 PWs)   bands (ev):

   -32.2867 -10.0946  -9.6010  -9.5336   7.7875   8.3758  15.5139  17.8933

          k =-0.1667 0.5000 0.0000 (  1811 PWs)   bands (ev):

   -32.3193  -9.8341  -9.5673  -9.5255   4.3421  14.2206  15.5422  18.0670

          k =-0.2500 0.5833-0.0833 (  1814 PWs)   bands (ev):

   -32.3015  -9.9304  -9.6156  -9.5455   5.3367  12.6248  14.5718  17.4874

          k = 0.6667-0.3333 0.8333 (  1811 PWs)   bands (ev):

   -32.2870 -10.0020  -9.6578  -9.5632   6.5570  10.8228  14.1113  17.0930

          k = 0.5833-0.2500 0.7500 (  1803 PWs)   bands (ev):

   -32.2797 -10.0319  -9.6911  -9.5659   7.8947   9.2193  13.8085  17.0126

          k = 0.5000-0.1667 0.6667 (  1804 PWs)   bands (ev):

   -32.2816 -10.0175  -9.7041  -9.5518   7.4567   9.7277  13.6336  17.2715

          k = 0.4167-0.0833 0.5833 (  1805 PWs)   bands (ev):

   -32.2922  -9.9689  -9.6835  -9.5273   6.1333  11.4236  13.6846  17.8256

          k = 0.3333 0.0000 0.5000 (  1815 PWs)   bands (ev):

   -32.3086  -9.9022  -9.6261  -9.5021   4.9827  12.9244  14.3760  18.5872

          k =-0.1667 0.6667-0.0000 (  1798 PWs)   bands (ev):

   -32.2926  -9.9509  -9.6250  -9.5894   5.7751  13.3167  13.4299  16.9053

          k = 0.7500-0.2500 0.9167 (  1805 PWs)   bands (ev):

   -32.2801  -9.9874  -9.6829  -9.6068   6.8664  11.7777  12.8096  16.3837

          k = 0.6667-0.1667 0.8333 (  1808 PWs)   bands (ev):

   -32.2728  -9.9819  -9.7556  -9.6066   8.1156  10.2852  12.2996  16.2459

          k = 0.5833-0.0833 0.7500 (  1809 PWs)   bands (ev):

   -32.2727  -9.9442  -9.8169  -9.5878   8.4773   9.9505  11.9143  16.4994

          k = 0.5000 0.0000 0.6667 (  1804 PWs)   bands (ev):

   -32.2798  -9.9452  -9.7861  -9.5578   7.2799  11.1505  12.0570  17.0647

          k = 0.8333-0.1667 1.0000 (  1794 PWs)   bands (ev):

   -32.2731 -10.0227  -9.6672  -9.6400   7.4335  11.3125  12.7708  16.2951

          k = 0.7500-0.0833 0.9167 (  1803 PWs)   bands (ev):

   -32.2678 -10.0053  -9.7315  -9.6429   8.5627  10.4264  11.8974  15.8495

          k = 0.6667 0.0000 0.8333 (  1801 PWs)   bands (ev):

   -32.2677  -9.9456  -9.8197  -9.6219   9.2693  10.0696  11.0809  15.9681

          k =-0.1667-1.0000 0.0000 (  1794 PWs)   bands (ev):

   -32.2660 -10.0462  -9.6827  -9.6594   9.0275   9.5671  12.5883  16.0955

          k = 0.6667-0.3333 1.0000 (  1806 PWs)   bands (ev):

   -32.2871  -9.9591  -9.6933  -9.5685   6.3645  12.1226  12.9398  16.6316

          k = 0.5833-0.2500 0.9167 (  1811 PWs)   bands (ev):

   -32.2766  -9.9663  -9.7544  -9.5939   7.5814  10.7503  12.4965  15.9763

          k = 0.5000-0.1667 0.8333 (  1810 PWs)   bands (ev):

   -32.2727  -9.9649  -9.7789  -9.6050   8.5945   9.6010  12.4537  15.7323

          k = 0.6667-0.1667 1.0000 (  1807 PWs)   bands (ev):

   -32.2715  -9.9731  -9.7424  -9.6378   7.9584  11.4010  11.6452  15.3226

          k = 0.5833-0.0833 0.9167 (  1804 PWs)   bands (ev):

   -32.2676  -9.9262  -9.8142  -9.6492   9.0752  10.3655  11.2922  14.8859

          k = 0.5000 0.0000 0.8333 (  1805 PWs)   bands (ev):

   -32.2695  -9.9018  -9.8444  -9.6294   8.7058  10.7188  11.1935  15.1608

          k =-0.3333-1.0000 0.0000 (  1806 PWs)   bands (ev):

   -32.2658  -9.9702  -9.7603  -9.6698   9.4448   9.9387  11.4868  14.8743

          k =-0.5000-1.0000 0.0000 (  1800 PWs)   bands (ev):

   -32.2657  -9.8656  -9.8656  -9.6749   9.7009  10.5765  10.5765  14.3068

     the Fermi energy is    -5.9521 ev
     (compare with:    -9.4351 eV, computed in scf)

     Writing all to output data dir ./tmp/neon.save/ :
     XML data file, pseudopotentials, collected wavefunctions

     init_run     :      0.20s CPU      0.23s WALL (       1 calls)
     electrons    :      6.06s CPU      6.20s WALL (       1 calls)

     Called by init_run:
     wfcinit      :      0.00s CPU      0.00s WALL (       1 calls)
     potinit      :      0.01s CPU      0.01s WALL (       1 calls)
     hinit0       :      0.17s CPU      0.19s WALL (       1 calls)

     Called by electrons:
     c_bands      :      6.05s CPU      6.18s WALL (       1 calls)
     v_of_rho     :      0.00s CPU      0.01s WALL (       1 calls)

     Called by c_bands:
     init_us_2    :      0.02s CPU      0.02s WALL (      72 calls)
     init_us_2:cp :      0.02s CPU      0.02s WALL (      72 calls)
     cegterg      :      5.32s CPU      5.35s WALL (      78 calls)

     Called by *egterg:
     cdiaghg      :      0.12s CPU      0.13s WALL (    1181 calls)
     h_psi        :      4.63s CPU      4.68s WALL (    1259 calls)
     g_psi        :      0.04s CPU      0.04s WALL (    1109 calls)

     Called by h_psi:
     h_psi:calbec :      0.15s CPU      0.15s WALL (    1259 calls)
     vloc_psi     :      4.32s CPU      4.37s WALL (    1259 calls)
     add_vuspsi   :      0.12s CPU      0.12s WALL (    1259 calls)

     General routines
     calbec       :      0.15s CPU      0.15s WALL (    1259 calls)
     fft          :      0.15s CPU      0.15s WALL (       3 calls)
     fftw         :      3.66s CPU      3.70s WALL (   10920 calls)
     davcio       :      0.03s CPU      0.09s WALL (     144 calls)


     PWSCF        :      6.41s CPU      6.68s WALL


   This run was terminated on:  12:11: 3  18Nov2024            

=------------------------------------------------------------------------------=
   JOB DONE.
=------------------------------------------------------------------------------=
