
     Program PWSCF v.7.3 starts on 14Dec2024 at 21:10:25 

     This program is part of the open-source Quantum ESPRESSO suite
     for quantum simulation of materials; please cite
         "P. Giannozzi et al., J. Phys.:Condens. Matter 21 395502 (2009);
         "P. Giannozzi et al., J. Phys.:Condens. Matter 29 465901 (2017);
         "P. Giannozzi et al., J. Chem. Phys. 152 154105 (2020);
          URL http://www.quantum-espresso.org", 
     in publications or presentations arising from this work. More details at
     http://www.quantum-espresso.org/quote

     Serial version
     5019 MiB available memory on the printing compute node when the environment starts

     Waiting for input...
     Reading input from standard input

     Current dimensions of program PWSCF are:
     Max number of different atomic species (ntypx) = 10
     Max number of k-points (npk) =  40000
     Max angular momentum in pseudopotentials (lmaxx) =  4
     Message from routine iosys:
     BEWARE:  force calculation with tetrahedra (not recommanded)
     Message from routine iosys:
     BEWARE: stress calculation with tetrahedra (not recommanded)


     G-vector sticks info
     --------------------
     sticks:   dense  smooth     PW     G-vecs:    dense   smooth      PW
     Sum         559     559    163                12303    12303    2041

     Using Slab Decomposition



     bravais-lattice index     =            4
     lattice parameter (alat)  =       5.8260  a.u.
     unit-cell volume          =     195.5727 (a.u.)^3
     number of atoms/cell      =            3
     number of atomic types    =            2
     number of electrons       =         9.00
     number of Kohn-Sham states=            9
     kinetic-energy cutoff     =      60.0000  Ry
     charge density cutoff     =     240.0000  Ry
     scf convergence threshold =      1.0E-06
     mixing beta               =       0.7000
     number of iterations used =            8  plain     mixing
     Exchange-correlation= PBE
                           (   1   4   3   4   0   0   0)

     celldm(1)=   5.826000  celldm(2)=   0.000000  celldm(3)=   1.142000
     celldm(4)=   0.000000  celldm(5)=   0.000000  celldm(6)=   0.000000

     crystal axes: (cart. coord. in units of alat)
               a(1) = (   1.000000   0.000000   0.000000 )  
               a(2) = (  -0.500000   0.866025   0.000000 )  
               a(3) = (   0.000000   0.000000   1.142000 )  

     reciprocal axes: (cart. coord. in units 2 pi/alat)
               b(1) = (  1.000000  0.577350 -0.000000 )  
               b(2) = (  0.000000  1.154701  0.000000 )  
               b(3) = (  0.000000 -0.000000  0.875657 )  


     PseudoPot. # 1 for Li read from file:
     ./PSEUDO/Li_ONCV_PBE_sr.upf
     MD5 check sum: 50ff420e78310ffa21704f3361e624a4
     Pseudo is Norm-conserving, Zval =  3.0
     Generated using ONCVPSP code by D. R. Hamann
     Using radial grid of 1944 points,  4 beta functions with: 
                l(1) =   0
                l(2) =   0
                l(3) =   1
                l(4) =   1

     PseudoPot. # 2 for B  read from file:
     ./PSEUDO/B_ONCV_PBE_sr.upf
     MD5 check sum: 12e13f68e8dc593c0a1d43390bab284b
     Pseudo is Norm-conserving + core correction, Zval =  3.0
     Generated using ONCVPSP code by D. R. Hamann
     Using radial grid of 1534 points,  4 beta functions with: 
                l(1) =   0
                l(2) =   0
                l(3) =   1
                l(4) =   1

     atomic species   valence    mass     pseudopotential
     Li                3.00     6.94000     Li( 1.00)
     B                 3.00    10.81000     B ( 1.00)

     24 Sym. Ops., with inversion, found



   Cartesian axes

     site n.     atom                  positions (alat units)
         1        Li     tau(   1) = (   0.0000000   0.0000000   0.0000000  )
         2        B      tau(   2) = (   0.0000000   0.5773503   0.5710000  )
         3        B      tau(   3) = (   0.5000000   0.2886751   0.5710000  )

     number of k points=    84 (tetrahedron method)
                       cart. coord. in units 2pi/alat
        k(    1) = (   0.0000000   0.0000000   0.0000000), wk =   0.0020000
        k(    2) = (   0.0000000   0.0000000   0.0875657), wk =   0.0040000
        k(    3) = (   0.0000000   0.0000000   0.1751313), wk =   0.0040000
        k(    4) = (   0.0000000   0.0000000   0.2626970), wk =   0.0040000
        k(    5) = (   0.0000000   0.0000000   0.3502627), wk =   0.0040000
        k(    6) = (   0.0000000   0.0000000  -0.4378284), wk =   0.0020000
        k(    7) = (   0.0000000   0.1154701   0.0000000), wk =   0.0120000
        k(    8) = (   0.0000000   0.1154701   0.0875657), wk =   0.0240000
        k(    9) = (   0.0000000   0.1154701   0.1751313), wk =   0.0240000
        k(   10) = (   0.0000000   0.1154701   0.2626970), wk =   0.0240000
        k(   11) = (   0.0000000   0.1154701   0.3502627), wk =   0.0240000
        k(   12) = (   0.0000000   0.1154701  -0.4378284), wk =   0.0120000
        k(   13) = (   0.0000000   0.2309401   0.0000000), wk =   0.0120000
        k(   14) = (   0.0000000   0.2309401   0.0875657), wk =   0.0240000
        k(   15) = (   0.0000000   0.2309401   0.1751313), wk =   0.0240000
        k(   16) = (   0.0000000   0.2309401   0.2626970), wk =   0.0240000
        k(   17) = (   0.0000000   0.2309401   0.3502627), wk =   0.0240000
        k(   18) = (   0.0000000   0.2309401  -0.4378284), wk =   0.0120000
        k(   19) = (   0.0000000   0.3464102   0.0000000), wk =   0.0120000
        k(   20) = (   0.0000000   0.3464102   0.0875657), wk =   0.0240000
        k(   21) = (   0.0000000   0.3464102   0.1751313), wk =   0.0240000
        k(   22) = (   0.0000000   0.3464102   0.2626970), wk =   0.0240000
        k(   23) = (   0.0000000   0.3464102   0.3502627), wk =   0.0240000
        k(   24) = (   0.0000000   0.3464102  -0.4378284), wk =   0.0120000
        k(   25) = (   0.0000000   0.4618802   0.0000000), wk =   0.0120000
        k(   26) = (   0.0000000   0.4618802   0.0875657), wk =   0.0240000
        k(   27) = (   0.0000000   0.4618802   0.1751313), wk =   0.0240000
        k(   28) = (   0.0000000   0.4618802   0.2626970), wk =   0.0240000
        k(   29) = (   0.0000000   0.4618802   0.3502627), wk =   0.0240000
        k(   30) = (   0.0000000   0.4618802  -0.4378284), wk =   0.0120000
        k(   31) = (   0.0000000  -0.5773503   0.0000000), wk =   0.0060000
        k(   32) = (   0.0000000  -0.5773503   0.0875657), wk =   0.0120000
        k(   33) = (   0.0000000  -0.5773503   0.1751313), wk =   0.0120000
        k(   34) = (   0.0000000  -0.5773503   0.2626970), wk =   0.0120000
        k(   35) = (   0.0000000  -0.5773503   0.3502627), wk =   0.0120000
        k(   36) = (   0.0000000  -0.5773503  -0.4378284), wk =   0.0060000
        k(   37) = (   0.1000000   0.1732051   0.0000000), wk =   0.0120000
        k(   38) = (   0.1000000   0.1732051   0.0875657), wk =   0.0240000
        k(   39) = (   0.1000000   0.1732051   0.1751313), wk =   0.0240000
        k(   40) = (   0.1000000   0.1732051   0.2626970), wk =   0.0240000
        k(   41) = (   0.1000000   0.1732051   0.3502627), wk =   0.0240000
        k(   42) = (   0.1000000   0.1732051  -0.4378284), wk =   0.0120000
        k(   43) = (   0.1000000   0.2886751   0.0000000), wk =   0.0240000
        k(   44) = (   0.1000000   0.2886751   0.0875657), wk =   0.0480000
        k(   45) = (   0.1000000   0.2886751   0.1751313), wk =   0.0480000
        k(   46) = (   0.1000000   0.2886751   0.2626970), wk =   0.0480000
        k(   47) = (   0.1000000   0.2886751   0.3502627), wk =   0.0480000
        k(   48) = (   0.1000000   0.2886751  -0.4378284), wk =   0.0240000
        k(   49) = (   0.1000000   0.4041452   0.0000000), wk =   0.0240000
        k(   50) = (   0.1000000   0.4041452   0.0875657), wk =   0.0480000
        k(   51) = (   0.1000000   0.4041452   0.1751313), wk =   0.0480000
        k(   52) = (   0.1000000   0.4041452   0.2626970), wk =   0.0480000
        k(   53) = (   0.1000000   0.4041452   0.3502627), wk =   0.0480000
        k(   54) = (   0.1000000   0.4041452  -0.4378284), wk =   0.0240000
        k(   55) = (   0.1000000   0.5196152   0.0000000), wk =   0.0240000
        k(   56) = (   0.1000000   0.5196152   0.0875657), wk =   0.0480000
        k(   57) = (   0.1000000   0.5196152   0.1751313), wk =   0.0480000
        k(   58) = (   0.1000000   0.5196152   0.2626970), wk =   0.0480000
        k(   59) = (   0.1000000   0.5196152   0.3502627), wk =   0.0480000
        k(   60) = (   0.1000000   0.5196152  -0.4378284), wk =   0.0240000
        k(   61) = (   0.2000000   0.3464102   0.0000000), wk =   0.0120000
        k(   62) = (   0.2000000   0.3464102   0.0875657), wk =   0.0240000
        k(   63) = (   0.2000000   0.3464102   0.1751313), wk =   0.0240000
        k(   64) = (   0.2000000   0.3464102   0.2626970), wk =   0.0240000
        k(   65) = (   0.2000000   0.3464102   0.3502627), wk =   0.0240000
        k(   66) = (   0.2000000   0.3464102  -0.4378284), wk =   0.0120000
        k(   67) = (   0.2000000   0.4618802   0.0000000), wk =   0.0240000
        k(   68) = (   0.2000000   0.4618802   0.0875657), wk =   0.0480000
        k(   69) = (   0.2000000   0.4618802   0.1751313), wk =   0.0480000
        k(   70) = (   0.2000000   0.4618802   0.2626970), wk =   0.0480000
        k(   71) = (   0.2000000   0.4618802   0.3502627), wk =   0.0480000
        k(   72) = (   0.2000000   0.4618802  -0.4378284), wk =   0.0240000
        k(   73) = (   0.2000000   0.5773503   0.0000000), wk =   0.0120000
        k(   74) = (   0.2000000   0.5773503   0.0875657), wk =   0.0240000
        k(   75) = (   0.2000000   0.5773503   0.1751313), wk =   0.0240000
        k(   76) = (   0.2000000   0.5773503   0.2626970), wk =   0.0240000
        k(   77) = (   0.2000000   0.5773503   0.3502627), wk =   0.0240000
        k(   78) = (   0.2000000   0.5773503  -0.4378284), wk =   0.0120000
        k(   79) = (   0.3000000   0.5196152   0.0000000), wk =   0.0120000
        k(   80) = (   0.3000000   0.5196152   0.0875657), wk =   0.0240000
        k(   81) = (   0.3000000   0.5196152   0.1751313), wk =   0.0240000
        k(   82) = (   0.3000000   0.5196152   0.2626970), wk =   0.0240000
        k(   83) = (   0.3000000   0.5196152   0.3502627), wk =   0.0240000
        k(   84) = (   0.3000000   0.5196152  -0.4378284), wk =   0.0120000

     Dense  grid:    12303 G-vectors     FFT dimensions: (  30,  30,  36)

     Estimated max dynamical RAM per process >      27.77 MB

     Initial potential from superposition of free atoms

     starting charge       8.9949, renormalised to       9.0000
     Starting wfcs are   10 randomized atomic wfcs

     total cpu time spent up to now is        1.5 secs

     Self-consistent Calculation

     iteration #  1     ecut=    60.00 Ry     beta= 0.70
     Davidson diagonalization with overlap
     ethr =  1.00E-02,  avg # of iterations =  4.2

     total cpu time spent up to now is        3.9 secs

     total energy              =     -26.12517676 Ry
     estimated scf accuracy    <       0.14464148 Ry

     iteration #  2     ecut=    60.00 Ry     beta= 0.70
     Davidson diagonalization with overlap
     ethr =  1.61E-03,  avg # of iterations =  3.0

     total cpu time spent up to now is        5.8 secs

     total energy              =     -26.16092293 Ry
     estimated scf accuracy    <       0.01113074 Ry

     iteration #  3     ecut=    60.00 Ry     beta= 0.70
     Davidson diagonalization with overlap
     ethr =  1.24E-04,  avg # of iterations =  4.0

     total cpu time spent up to now is        8.0 secs

     total energy              =     -26.16255376 Ry
     estimated scf accuracy    <       0.00013854 Ry

     iteration #  4     ecut=    60.00 Ry     beta= 0.70
     Davidson diagonalization with overlap
     c_bands:  1 eigenvalues not converged
     c_bands:  1 eigenvalues not converged
     c_bands:  1 eigenvalues not converged
     c_bands:  1 eigenvalues not converged
     ethr =  1.54E-06,  avg # of iterations =  6.7

     total cpu time spent up to now is       10.9 secs

     total energy              =     -26.16258018 Ry
     estimated scf accuracy    <       0.00001550 Ry

     iteration #  5     ecut=    60.00 Ry     beta= 0.70
     Davidson diagonalization with overlap
     ethr =  1.72E-07,  avg # of iterations =  2.0

     total cpu time spent up to now is       12.6 secs

     End of self-consistent calculation

          k = 0.0000 0.0000 0.0000 (  1511 PWs)   bands (ev):

   -40.1859  -6.0350   2.9693   5.8808   5.8808   9.9256  11.9035  11.9035
    14.1331

          k = 0.0000 0.0000 0.0876 (  1505 PWs)   bands (ev):

   -40.1853  -5.9881   2.5990   5.9011   5.9011  10.5365  11.9764  11.9764
    14.1249

          k = 0.0000 0.0000 0.1751 (  1523 PWs)   bands (ev):

   -40.1855  -5.8582   1.7853   5.9543   5.9543  12.0665  12.1818  12.1818
    14.1030

          k = 0.0000 0.0000 0.2627 (  1534 PWs)   bands (ev):

   -40.1854  -5.6798   0.9509   6.0218   6.0218  12.4725  12.4725  14.0705
    14.0753

          k = 0.0000 0.0000 0.3503 (  1546 PWs)   bands (ev):

   -40.1855  -5.5168   0.3476   6.0779   6.0779  12.7509  12.7509  14.0514
    15.4422

          k = 0.0000 0.0000-0.4378 (  1552 PWs)   bands (ev):

   -40.1856  -5.4490   0.1262   6.0999   6.0999  12.8710  12.8710  14.0438
    15.4325

          k = 0.0000 0.1155 0.0000 (  1527 PWs)   bands (ev):

   -40.1853  -5.8819   3.1559   5.0896   5.4899   9.8712  12.1789  12.6221
    15.0164

          k = 0.0000 0.1155 0.0876 (  1529 PWs)   bands (ev):

   -40.1852  -5.8346   2.7758   5.1195   5.5140  10.4599  12.2595  12.6898
    14.2851

          k = 0.0000 0.1155 0.1751 (  1529 PWs)   bands (ev):

   -40.1846  -5.7032   1.9482   5.1974   5.5782  11.7572  12.6440  12.8821
    13.8984

          k = 0.0000 0.1155 0.2627 (  1542 PWs)   bands (ev):

   -40.1847  -5.5227   1.1043   5.2948   5.6595  12.3980  13.1608  13.5186
    14.2129

          k = 0.0000 0.1155 0.3503 (  1541 PWs)   bands (ev):

   -40.1841  -5.3576   0.4951   5.3769   5.7277  12.6471  13.2567  13.4382
    15.7787

          k = 0.0000 0.1155-0.4378 (  1534 PWs)   bands (ev):

   -40.1836  -5.2889   0.2725   5.4091   5.7544  12.7395  13.1604  13.5633
    15.8255

          k = 0.0000 0.2309 0.0000 (  1523 PWs)   bands (ev):

   -40.1819  -5.4238   3.3523   3.7097   4.7056   9.9165  12.3038  13.6424
    14.3475

          k = 0.0000 0.2309 0.0876 (  1519 PWs)   bands (ev):

   -40.1815  -5.3750   3.2184   3.4831   4.7350  10.4745  12.3696  13.2900
    14.4005

          k = 0.0000 0.2309 0.1751 (  1534 PWs)   bands (ev):

   -40.1818  -5.2395   2.4107   3.5342   4.8137  11.5621  12.3717  13.0770
    14.5540

          k = 0.0000 0.2309 0.2627 (  1533 PWs)   bands (ev):

   -40.1812  -5.0529   1.5518   3.6579   4.9153  11.7315  12.1284  14.5132
    14.7934

          k = 0.0000 0.2309 0.3503 (  1540 PWs)   bands (ev):

   -40.1811  -4.8818   0.9316   3.7676   5.0008  11.2838  12.2767  15.0916
    16.5515

          k = 0.0000 0.2309-0.4378 (  1552 PWs)   bands (ev):

   -40.1816  -4.8104   0.7045   3.8116   5.0342  11.1159  12.3239  15.2969
    16.9303

          k = 0.0000 0.3464 0.0000 (  1524 PWs)   bands (ev):

   -40.1780  -4.6674   1.4121   3.9817   4.6068  10.1413  11.8207  12.1162
    15.9140

          k = 0.0000 0.3464 0.0876 (  1533 PWs)   bands (ev):

   -40.1783  -4.6162   1.4473   4.0143   4.1781  10.6416  11.2823  12.4507
    16.3828

          k = 0.0000 0.3464 0.1751 (  1534 PWs)   bands (ev):

   -40.1780  -4.4737   1.5408   3.2817   4.1025  10.4295  11.4518  13.2899
    16.2185

          k = 0.0000 0.3464 0.2627 (  1538 PWs)   bands (ev):

   -40.1777  -4.2769   1.6437   2.4133   4.2164   9.6561  11.7628  14.9290
    15.8014

          k = 0.0000 0.3464 0.3503 (  1531 PWs)   bands (ev):

   -40.1770  -4.0956   1.5622   1.9683   4.3134   9.1200  11.8512  15.3482
    16.6287

          k = 0.0000 0.3464-0.4378 (  1534 PWs)   bands (ev):

   -40.1770  -4.0197   1.3965   1.9456   4.3515   8.9281  11.8712  15.1656
    16.9342

          k = 0.0000 0.4619 0.0000 (  1548 PWs)   bands (ev):

   -40.1759  -3.6436  -0.3943   3.5053   5.7584   9.9722  10.5188  11.7529
    15.6205

          k = 0.0000 0.4619 0.0876 (  1545 PWs)   bands (ev):

   -40.1756  -3.5877  -0.3563   3.5396   5.2668   9.4817  10.9047  12.2742
    16.0136

          k = 0.0000 0.4619 0.1751 (  1540 PWs)   bands (ev):

   -40.1751  -3.4318  -0.2493   3.6324   4.2606   8.6169  11.3514  13.6242
    16.3895

          k = 0.0000 0.4619 0.2627 (  1541 PWs)   bands (ev):

   -40.1747  -3.2160  -0.0954   3.2594   3.7530   7.8345  11.5156  15.4344
    15.4376

          k = 0.0000 0.4619 0.3503 (  1528 PWs)   bands (ev):

   -40.1738  -3.0166   0.0607   2.5177   3.8557   7.3051  11.5555  14.7902
    16.8997

          k = 0.0000 0.4619-0.4378 (  1522 PWs)   bands (ev):

   -40.1733  -2.9328   0.1345   2.2329   3.8965   7.1181  11.5604  14.5626
    16.9625

          k = 0.0000-0.5774 0.0000 (  1552 PWs)   bands (ev):

   -40.1749  -2.7570  -1.5512   3.3408   6.5774   8.8983  10.8233  11.4518
    15.4248

          k = 0.0000-0.5774 0.0876 (  1538 PWs)   bands (ev):

   -40.1741  -2.6868  -1.5254   3.3762   6.0175   8.4716  11.0469  12.1895
    15.7939

          k = 0.0000-0.5774 0.1751 (  1536 PWs)   bands (ev):

   -40.1737  -2.4876  -1.4559   3.4702   4.9075   7.6791  11.3159  13.8210
    16.2810

          k = 0.0000-0.5774 0.2627 (  1538 PWs)   bands (ev):

   -40.1734  -2.2006  -1.3656   3.5927   3.8213   6.9540  11.4288  15.2665
    15.7277

          k = 0.0000-0.5774 0.3503 (  1532 PWs)   bands (ev):

   -40.1728  -1.9184  -1.2881   3.0252   3.6974   6.4651  11.4520  14.5948
    16.9897

          k = 0.0000-0.5774-0.4378 (  1528 PWs)   bands (ev):

   -40.1725  -1.7930  -1.2573   2.7241   3.7386   6.2928  11.4522  14.3604
    16.9814

          k = 0.1000 0.1732 0.0000 (  1531 PWs)   bands (ev):

   -40.1833  -5.5763   3.5263   4.0113   4.7091   9.9583  12.8049  13.1721
    14.0959

          k = 0.1000 0.1732 0.0876 (  1531 PWs)   bands (ev):

   -40.1831  -5.5280   3.1230   4.0480   4.7514  10.5419  12.8623  13.2120
    13.7396

          k = 0.1000 0.1732 0.1751 (  1525 PWs)   bands (ev):

   -40.1823  -5.3938   2.2677   4.1477   4.8366  11.8408  12.9401  13.1529
    13.5221

          k = 0.1000 0.1732 0.2627 (  1537 PWs)   bands (ev):

   -40.1823  -5.2092   1.4067   4.2785   4.9318  12.3328  12.6142  13.7699
    14.4189

          k = 0.1000 0.1732 0.3503 (  1538 PWs)   bands (ev):

   -40.1820  -5.0401   0.7882   4.3913   5.0089  11.8910  12.8130  14.0445
    15.9959

          k = 0.1000 0.1732-0.4378 (  1542 PWs)   bands (ev):

   -40.1820  -4.9696   0.5620   4.4362   5.0386  11.7309  12.8687  14.1707
    16.8320

          k = 0.1000 0.2887 0.0000 (  1525 PWs)   bands (ev):

   -40.1794  -4.9684   2.3532   3.7722   4.2539  10.2378  12.5917  12.8440
    14.5997

          k = 0.1000 0.2887 0.0876 (  1527 PWs)   bands (ev):

   -40.1793  -4.9182   2.3897   3.6693   3.9798  10.8162  12.1053  12.9938
    14.6888

          k = 0.1000 0.2887 0.1751 (  1530 PWs)   bands (ev):

   -40.1791  -4.7786   2.4552   2.9468   3.9494  11.2676  12.0108  13.3641
    14.8652

          k = 0.1000 0.2887 0.2627 (  1529 PWs)   bands (ev):

   -40.1786  -4.5861   1.9652   2.7202   4.0322  10.4721  12.6117  14.5523
    15.1434

          k = 0.1000 0.2887 0.3503 (  1530 PWs)   bands (ev):

   -40.1783  -4.4091   1.3576   2.8314   4.1096   9.9142  12.7433  14.9562
    15.3956

          k = 0.1000 0.2887-0.4378 (  1534 PWs)   bands (ev):

   -40.1783  -4.3350   1.1302   2.8815   4.1410   9.7131  12.7717  14.8784
    15.4407

          k = 0.1000 0.4041 0.0000 (  1527 PWs)   bands (ev):

   -40.1759  -4.0719   0.5320   3.1212   5.2952  10.6640  10.8230  12.4635
    15.5270

          k = 0.1000 0.4041 0.0876 (  1535 PWs)   bands (ev):

   -40.1762  -4.0187   0.5731   3.1456   4.8453  10.3258  11.2149  12.7287
    15.8841

          k = 0.1000 0.4041 0.1751 (  1532 PWs)   bands (ev):

   -40.1757  -3.8702   0.6875   3.1944   3.9302   9.4135  12.0771  13.5291
    15.6801

          k = 0.1000 0.4041 0.2627 (  1532 PWs)   bands (ev):

   -40.1753  -3.6648   0.8475   2.8593   3.4254   8.5618  12.3747  14.5804
    15.5813

          k = 0.1000 0.4041 0.3503 (  1531 PWs)   bands (ev):

   -40.1748  -3.4752   1.0100   2.2006   3.4765   7.9694  12.4459  14.2921
    17.1625

          k = 0.1000 0.4041-0.4378 (  1532 PWs)   bands (ev):

   -40.1747  -3.3955   1.0948   1.9283   3.5096   7.7560  12.4603  14.1337
    17.3216

          k = 0.1000 0.5196 0.0000 (  1547 PWs)   bands (ev):

   -40.1747  -2.9757  -1.0732   2.7894   6.4450   9.2354  11.2378  11.8880
    15.2565

          k = 0.1000 0.5196 0.0876 (  1540 PWs)   bands (ev):

   -40.1742  -2.9142  -1.0370   2.8203   5.9141   8.7874  11.6700  12.3901
    15.4996

          k = 0.1000 0.5196 0.1751 (  1541 PWs)   bands (ev):

   -40.1739  -2.7422  -0.9358   2.9054   4.8469   7.9263  12.0719  13.8400
    15.1458

          k = 0.1000 0.5196 0.2627 (  1530 PWs)   bands (ev):

   -40.1730  -2.5029  -0.7926   3.0211   3.7979   7.1143  12.2159  14.4130
    15.7565

          k = 0.1000 0.5196 0.3503 (  1534 PWs)   bands (ev):

   -40.1729  -2.2806  -0.6518   2.9982   3.1565   6.5472  12.2567  13.9415
    17.5010

          k = 0.1000 0.5196-0.4378 (  1528 PWs)   bands (ev):

   -40.1725  -2.1870  -0.5878   2.7217   3.1865   6.3422  12.2653  13.7663
    17.7299

          k = 0.2000 0.3464 0.0000 (  1531 PWs)   bands (ev):

   -40.1765  -4.2176   1.2411   2.4771   5.1343  10.7916  11.2696  14.0569
    14.3931

          k = 0.2000 0.3464 0.0876 (  1533 PWs)   bands (ev):

   -40.1765  -4.1651   1.2930   2.4858   4.7045  10.7730  11.4067  14.3335
    14.3818

          k = 0.2000 0.3464 0.1751 (  1525 PWs)   bands (ev):

   -40.1758  -4.0188   1.4370   2.4947   3.8221   9.8140  12.7667  14.3765
    14.7419

          k = 0.2000 0.3464 0.2627 (  1527 PWs)   bands (ev):

   -40.1754  -3.8165   1.6334   2.3988   3.0601   8.9015  13.7387  14.2457
    15.0779

          k = 0.2000 0.3464 0.3503 (  1531 PWs)   bands (ev):

   -40.1752  -3.6298   1.8113   2.0259   2.8240   8.2597  13.8489  13.9377
    15.3332

          k = 0.2000 0.3464-0.4378 (  1528 PWs)   bands (ev):

   -40.1749  -3.5514   1.8256   1.8851   2.8025   8.0269  13.7517  13.9039
    15.4360

          k = 0.2000 0.4619 0.0000 (  1534 PWs)   bands (ev):

   -40.1741  -3.2023  -0.1851   1.7303   6.2722   9.8120  11.4097  13.4038
    15.1885

          k = 0.2000 0.4619 0.0876 (  1544 PWs)   bands (ev):

   -40.1745  -3.1457  -0.1347   1.7493   5.7781   9.2987  12.0579  13.7765
    14.7858

          k = 0.2000 0.4619 0.1751 (  1537 PWs)   bands (ev):

   -40.1738  -2.9878   0.0051   1.8051   4.7696   8.3021  13.3542  14.0719
    14.5867

          k = 0.2000 0.4619 0.2627 (  1536 PWs)   bands (ev):

   -40.1733  -2.7687   0.1981   1.8917   3.7665   7.3488  13.5549  14.0630
    15.8082

          k = 0.2000 0.4619 0.3503 (  1537 PWs)   bands (ev):

   -40.1730  -2.5655   0.3790   1.9935   3.0171   6.6729  13.2256  14.1356
    16.7709

          k = 0.2000 0.4619-0.4378 (  1540 PWs)   bands (ev):

   -40.1730  -2.4800   0.4577   2.0548   2.7178   6.4255  13.1049  14.1422
    16.8819

          k = 0.2000 0.5774 0.0000 (  1551 PWs)   bands (ev):

   -40.1739  -2.3004  -1.2792   1.5162   7.1312   8.8258  11.8743  12.8440
    15.1834

          k = 0.2000 0.5774 0.0876 (  1540 PWs)   bands (ev):

   -40.1732  -2.2322  -1.2404   1.5388   6.5727   8.3517  12.5992  13.2433
    14.3963

          k = 0.2000 0.5774 0.1751 (  1530 PWs)   bands (ev):

   -40.1724  -2.0392  -1.1356   1.6045   5.4711   7.4009  13.7949  13.8570
    14.1840

          k = 0.2000 0.5774 0.2627 (  1526 PWs)   bands (ev):

   -40.1718  -1.7629  -0.9987   1.7039   4.3992   6.4744  13.3502  14.0318
    15.9966

          k = 0.2000 0.5774 0.3503 (  1547 PWs)   bands (ev):

   -40.1726  -1.4944  -0.8816   1.8067   3.6187   5.8089  13.0140  14.0867
    17.6408

          k = 0.2000 0.5774-0.4378 (  1548 PWs)   bands (ev):

   -40.1725  -1.3762  -0.8351   1.8542   3.3257   5.5632  12.8970  14.0933
    18.6468

          k = 0.3000 0.5196 0.0000 (  1537 PWs)   bands (ev):

   -40.1728  -2.1336  -0.9461   0.6974   7.4167   8.7529  12.1339  13.0581
    14.0159

          k = 0.3000 0.5196 0.0876 (  1542 PWs)   bands (ev):

   -40.1730  -2.0717  -0.8840   0.7028   6.8762   8.2067  12.8134  13.7084
    13.8425

          k = 0.3000 0.5196 0.1751 (  1537 PWs)   bands (ev):

   -40.1724  -1.8982  -0.7095   0.7197   5.8044   7.1419  13.3550  14.3828
    15.0204

          k = 0.3000 0.5196 0.2627 (  1540 PWs)   bands (ev):

   -40.1722  -1.6554  -0.4645   0.7480   4.7596   6.1186  12.9585  15.7943
    16.1849

          k = 0.3000 0.5196 0.3503 (  1549 PWs)   bands (ev):

   -40.1723  -1.4280  -0.2331   0.7825   3.9996   5.3866  12.6748  16.0030
    16.7642

          k = 0.3000 0.5196-0.4378 (  1550 PWs)   bands (ev):

   -40.1722  -1.3313  -0.1340   0.8008   3.7146   5.1162  12.5751  15.9898
    16.9168

     the Fermi energy is     4.5831 ev

!    total energy              =     -26.16258780 Ry
     estimated scf accuracy    <       0.00000029 Ry

     The total energy is the sum of the following terms:
     one-electron contribution =      -3.47500687 Ry
     hartree contribution      =       3.86344325 Ry
     xc contribution           =      -8.10737194 Ry
     ewald contribution        =     -18.44365225 Ry

     convergence has been achieved in   5 iterations

     Forces acting on atoms (cartesian axes, Ry/au):

     atom    1 type  1   force =     0.00000000    0.00000000   -0.00000000
     atom    2 type  2   force =     0.00000000   -0.00000000    0.00000000
     atom    3 type  2   force =     0.00000000    0.00000000    0.00000000

     Total force =     0.000000     Total SCF correction =     0.000000


     Computing stress (Cartesian axis) and pressure

          total   stress  (Ry/bohr**3)                   (kbar)     P=     -120.81
  -0.00107235  -0.00000000   0.00000000         -157.75       -0.00        0.00
  -0.00000000  -0.00107235   0.00000000           -0.00     -157.75        0.00
   0.00000000   0.00000000  -0.00031896            0.00        0.00      -46.92


     Writing all to output data dir ./tmp/LiB2.save/ :
     XML data file, charge density, pseudopotentials, collected wavefunctions

     init_run     :      1.33s CPU      1.43s WALL (       1 calls)
     electrons    :     10.58s CPU     11.06s WALL (       1 calls)
     forces       :      0.26s CPU      0.27s WALL (       1 calls)
     stress       :      1.19s CPU      1.24s WALL (       1 calls)

     Called by init_run:
     wfcinit      :      0.97s CPU      1.03s WALL (       1 calls)
     potinit      :      0.06s CPU      0.08s WALL (       1 calls)
     hinit0       :      0.28s CPU      0.30s WALL (       1 calls)

     Called by electrons:
     c_bands      :      9.13s CPU      9.53s WALL (       5 calls)
     sum_band     :      1.38s CPU      1.44s WALL (       5 calls)
     v_of_rho     :      0.06s CPU      0.09s WALL (       6 calls)
     mix_rho      :      0.01s CPU      0.01s WALL (       5 calls)

     Called by c_bands:
     init_us_2    :      0.33s CPU      0.35s WALL (    1092 calls)
     init_us_2:cp :      0.33s CPU      0.34s WALL (    1092 calls)
     cegterg      :      8.70s CPU      9.09s WALL (     420 calls)

     Called by *egterg:
     cdiaghg      :      0.20s CPU      0.21s WALL (    2086 calls)
     h_psi        :      7.51s CPU      7.85s WALL (    2170 calls)
     g_psi        :      0.04s CPU      0.05s WALL (    1666 calls)

     Called by h_psi:
     h_psi:calbec :      0.76s CPU      0.78s WALL (    2170 calls)
     vloc_psi     :      6.07s CPU      6.35s WALL (    2170 calls)
     add_vuspsi   :      0.62s CPU      0.65s WALL (    2170 calls)

     General routines
     calbec       :      0.97s CPU      1.01s WALL (    2590 calls)
     fft          :      0.20s CPU      0.21s WALL (      84 calls)
     ffts         :      0.00s CPU      0.00s WALL (       5 calls)
     fftw         :      5.89s CPU      6.17s WALL (   26820 calls)


     PWSCF        :     13.48s CPU     14.18s WALL


   This run was terminated on:  21:10:40  14Dec2024            

=------------------------------------------------------------------------------=
   JOB DONE.
=------------------------------------------------------------------------------=
