
     Program PWSCF v.7.3 starts on 14Dec2024 at 19:28:20 

     This program is part of the open-source Quantum ESPRESSO suite
     for quantum simulation of materials; please cite
         "P. Giannozzi et al., J. Phys.:Condens. Matter 21 395502 (2009);
         "P. Giannozzi et al., J. Phys.:Condens. Matter 29 465901 (2017);
         "P. Giannozzi et al., J. Chem. Phys. 152 154105 (2020);
          URL http://www.quantum-espresso.org", 
     in publications or presentations arising from this work. More details at
     http://www.quantum-espresso.org/quote

     Serial version
     5123 MiB available memory on the printing compute node when the environment starts

     Waiting for input...
     Reading input from standard input

     Current dimensions of program PWSCF are:
     Max number of different atomic species (ntypx) = 10
     Max number of k-points (npk) =  40000
     Max angular momentum in pseudopotentials (lmaxx) =  4
     Message from routine iosys:
     BEWARE:  force calculation with tetrahedra (not recommanded)
     Message from routine iosys:
     BEWARE: stress calculation with tetrahedra (not recommanded)


     G-vector sticks info
     --------------------
     sticks:   dense  smooth     PW     G-vecs:    dense   smooth      PW
     Sum         745     745    223                18961    18961    3087

     Using Slab Decomposition



     bravais-lattice index     =            4
     lattice parameter (alat)  =       5.8260  a.u.
     unit-cell volume          =     195.5727 (a.u.)^3
     number of atoms/cell      =            3
     number of atomic types    =            2
     number of electrons       =         9.00
     number of Kohn-Sham states=            9
     kinetic-energy cutoff     =      80.0000  Ry
     charge density cutoff     =     320.0000  Ry
     scf convergence threshold =      1.0E-06
     mixing beta               =       0.7000
     number of iterations used =            8  plain     mixing
     Exchange-correlation= PBE
                           (   1   4   3   4   0   0   0)

     celldm(1)=   5.826000  celldm(2)=   0.000000  celldm(3)=   1.142000
     celldm(4)=   0.000000  celldm(5)=   0.000000  celldm(6)=   0.000000

     crystal axes: (cart. coord. in units of alat)
               a(1) = (   1.000000   0.000000   0.000000 )  
               a(2) = (  -0.500000   0.866025   0.000000 )  
               a(3) = (   0.000000   0.000000   1.142000 )  

     reciprocal axes: (cart. coord. in units 2 pi/alat)
               b(1) = (  1.000000  0.577350 -0.000000 )  
               b(2) = (  0.000000  1.154701  0.000000 )  
               b(3) = (  0.000000 -0.000000  0.875657 )  


     PseudoPot. # 1 for Li read from file:
     ./PSEUDO/Li_ONCV_PBE_sr.upf
     MD5 check sum: 50ff420e78310ffa21704f3361e624a4
     Pseudo is Norm-conserving, Zval =  3.0
     Generated using ONCVPSP code by D. R. Hamann
     Using radial grid of 1944 points,  4 beta functions with: 
                l(1) =   0
                l(2) =   0
                l(3) =   1
                l(4) =   1

     PseudoPot. # 2 for B  read from file:
     ./PSEUDO/B_ONCV_PBE_sr.upf
     MD5 check sum: 12e13f68e8dc593c0a1d43390bab284b
     Pseudo is Norm-conserving + core correction, Zval =  3.0
     Generated using ONCVPSP code by D. R. Hamann
     Using radial grid of 1534 points,  4 beta functions with: 
                l(1) =   0
                l(2) =   0
                l(3) =   1
                l(4) =   1

     atomic species   valence    mass     pseudopotential
     Li                3.00     6.94000     Li( 1.00)
     B                 3.00    10.81000     B ( 1.00)

      4 Sym. Ops. (no inversion) found



   Cartesian axes

     site n.     atom                  positions (alat units)
         1        Li     tau(   1) = (   0.0000000   0.0000000   0.0000000  )
         2        B      tau(   2) = (   0.0000000   0.5767729   0.5710000  )
         3        B      tau(   3) = (   0.4995000   0.2883865   0.5710000  )

     number of k points=    52 (tetrahedron method)
                       cart. coord. in units 2pi/alat
        k(    1) = (   0.0000000   0.0000000   0.0000000), wk =   0.0092593
        k(    2) = (   0.0000000   0.0000000   0.1459428), wk =   0.0185185
        k(    3) = (   0.0000000   0.0000000   0.2918856), wk =   0.0185185
        k(    4) = (   0.0000000   0.0000000  -0.4378284), wk =   0.0092593
        k(    5) = (   0.0000000   0.1924501   0.0000000), wk =   0.0370370
        k(    6) = (   0.0000000   0.1924501   0.1459428), wk =   0.0740741
        k(    7) = (   0.0000000   0.1924501   0.2918856), wk =   0.0740741
        k(    8) = (   0.0000000   0.1924501  -0.4378284), wk =   0.0370370
        k(    9) = (   0.0000000   0.3849002   0.0000000), wk =   0.0370370
        k(   10) = (   0.0000000   0.3849002   0.1459428), wk =   0.0740741
        k(   11) = (   0.0000000   0.3849002   0.2918856), wk =   0.0740741
        k(   12) = (   0.0000000   0.3849002  -0.4378284), wk =   0.0370370
        k(   13) = (   0.0000000  -0.5773503   0.0000000), wk =   0.0185185
        k(   14) = (   0.0000000  -0.5773503   0.1459428), wk =   0.0370370
        k(   15) = (   0.0000000  -0.5773503   0.2918856), wk =   0.0370370
        k(   16) = (   0.0000000  -0.5773503  -0.4378284), wk =   0.0185185
        k(   17) = (   0.1666667   0.2886751   0.0000000), wk =   0.0185185
        k(   18) = (   0.1666667   0.2886751   0.1459428), wk =   0.0370370
        k(   19) = (   0.1666667   0.2886751   0.2918856), wk =   0.0370370
        k(   20) = (   0.1666667   0.2886751  -0.4378284), wk =   0.0185185
        k(   21) = (   0.1666667   0.4811252   0.0000000), wk =   0.0370370
        k(   22) = (   0.1666667   0.4811252   0.1459428), wk =   0.0740741
        k(   23) = (   0.1666667   0.4811252   0.2918856), wk =   0.0740741
        k(   24) = (   0.1666667   0.4811252  -0.4378284), wk =   0.0370370
        k(   25) = (   0.3333333   0.5773503   0.0000000), wk =   0.0185185
        k(   26) = (   0.3333333   0.5773503   0.1459428), wk =   0.0370370
        k(   27) = (   0.3333333   0.5773503   0.2918856), wk =   0.0370370
        k(   28) = (   0.3333333   0.5773503  -0.4378284), wk =   0.0185185
        k(   29) = (  -0.1666667   0.0962250   0.0000000), wk =   0.0185185
        k(   30) = (  -0.1666667   0.0962250   0.1459428), wk =   0.0370370
        k(   31) = (  -0.1666667   0.0962250   0.2918856), wk =   0.0370370
        k(   32) = (  -0.1666667   0.0962250  -0.4378284), wk =   0.0185185
        k(   33) = (  -0.3333333   0.1924501   0.0000000), wk =   0.0185185
        k(   34) = (  -0.3333333   0.1924501   0.1459428), wk =   0.0370370
        k(   35) = (  -0.3333333   0.1924501   0.2918856), wk =   0.0370370
        k(   36) = (  -0.3333333   0.1924501  -0.4378284), wk =   0.0185185
        k(   37) = (   0.5000000  -0.2886751   0.0000000), wk =   0.0092593
        k(   38) = (   0.5000000  -0.2886751   0.1459428), wk =   0.0185185
        k(   39) = (   0.5000000  -0.2886751   0.2918856), wk =   0.0185185
        k(   40) = (   0.5000000  -0.2886751  -0.4378284), wk =   0.0092593
        k(   41) = (  -0.1666667   0.2886751   0.0000000), wk =   0.0370370
        k(   42) = (  -0.1666667   0.2886751   0.1459428), wk =   0.0740741
        k(   43) = (  -0.1666667   0.2886751   0.2918856), wk =   0.0740741
        k(   44) = (  -0.1666667   0.2886751  -0.4378284), wk =   0.0370370
        k(   45) = (  -0.3333333   0.3849002   0.0000000), wk =   0.0370370
        k(   46) = (   0.5000000   0.0962250   0.0000000), wk =   0.0370370
        k(   47) = (  -0.3333333   0.3849002   0.1459428), wk =   0.0740741
        k(   48) = (   0.5000000   0.0962250   0.1459428), wk =   0.0740741
        k(   49) = (  -0.3333333   0.3849002   0.2918856), wk =   0.0740741
        k(   50) = (   0.5000000   0.0962250   0.2918856), wk =   0.0740741
        k(   51) = (  -0.3333333   0.3849002  -0.4378284), wk =   0.0370370
        k(   52) = (   0.5000000   0.0962250  -0.4378284), wk =   0.0370370

     Dense  grid:    18961 G-vectors     FFT dimensions: (  36,  36,  40)

     Estimated max dynamical RAM per process >      32.22 MB

     Initial potential from superposition of free atoms

     starting charge       8.9949, renormalised to       9.0000
     Starting wfcs are   10 randomized atomic wfcs

     total cpu time spent up to now is        1.4 secs

     Self-consistent Calculation

     iteration #  1     ecut=    80.00 Ry     beta= 0.70
     Davidson diagonalization with overlap
     ethr =  1.00E-02,  avg # of iterations =  4.1

     total cpu time spent up to now is        3.6 secs

     total energy              =     -26.12566603 Ry
     estimated scf accuracy    <       0.14952403 Ry

     iteration #  2     ecut=    80.00 Ry     beta= 0.70
     Davidson diagonalization with overlap
     ethr =  1.66E-03,  avg # of iterations =  2.8

     total cpu time spent up to now is        5.4 secs

     total energy              =     -26.16378697 Ry
     estimated scf accuracy    <       0.01133149 Ry

     iteration #  3     ecut=    80.00 Ry     beta= 0.70
     Davidson diagonalization with overlap
     ethr =  1.26E-04,  avg # of iterations =  4.1

     total cpu time spent up to now is        7.2 secs

     total energy              =     -26.16501731 Ry
     estimated scf accuracy    <       0.00014293 Ry

     iteration #  4     ecut=    80.00 Ry     beta= 0.70
     Davidson diagonalization with overlap
     c_bands:  1 eigenvalues not converged
     ethr =  1.59E-06,  avg # of iterations =  6.3

     total cpu time spent up to now is        9.8 secs

     total energy              =     -26.16502146 Ry
     estimated scf accuracy    <       0.00001210 Ry

     iteration #  5     ecut=    80.00 Ry     beta= 0.70
     Davidson diagonalization with overlap
     ethr =  1.34E-07,  avg # of iterations =  1.8

     total cpu time spent up to now is       11.3 secs

     End of self-consistent calculation

          k = 0.0000 0.0000 0.0000 (  2377 PWs)   bands (ev):

   -40.1928  -6.0183   2.9751   5.8906   5.9144   9.9125  11.9029  11.9291
    14.1448

          k = 0.0000 0.0000 0.1459 (  2371 PWs)   bands (ev):

   -40.1924  -5.8916   2.0779   5.9441   5.9680  11.4747  12.1004  12.1274
    14.1208

          k = 0.0000 0.0000 0.2919 (  2359 PWs)   bands (ev):

   -40.1915  -5.6001   0.7124   6.0545   6.0788  12.5748  12.6040  14.0716
    15.4742

          k = 0.0000 0.0000-0.4378 (  2358 PWs)   bands (ev):

   -40.1910  -5.4278   0.1219   6.1117   6.1361  12.8744  12.9056  14.0459
    15.4512

          k = 0.0000 0.1925 0.0000 (  2389 PWs)   bands (ev):

   -40.1896  -5.5934   3.4910   4.0034   4.9928   9.8720  12.3146  13.7194
    14.1785

          k = 0.0000 0.1925 0.1459 (  2369 PWs)   bands (ev):

   -40.1892  -5.4630   2.5340   4.1158   5.0670  11.2400  12.5859  13.3593
    13.8831

          k = 0.0000 0.1925 0.2919 (  2369 PWs)   bands (ev):

   -40.1883  -5.1622   1.1284   4.3173   5.2226  12.2176  12.3640  14.3144
    15.0369

          k = 0.0000 0.1925-0.4378 (  2368 PWs)   bands (ev):

   -40.1879  -4.9836   0.5246   4.4249   5.3045  11.8525  12.4964  14.6624
    16.5249

          k = 0.0000 0.3849 0.0000 (  2370 PWs)   bands (ev):

   -40.1831  -4.3357   0.8045   3.8088   4.9769  10.2505  11.1938  12.0139
    15.8496

          k = 0.0000 0.3849 0.1459 (  2366 PWs)   bands (ev):

   -40.1827  -4.1939   0.9057   3.8980   3.9214  10.0840  11.2432  12.9611
    16.6151

          k = 0.0000 0.3849 0.2919 (  2363 PWs)   bands (ev):

   -40.1819  -3.8646   1.1436   2.3937   4.0882   8.7829  11.7146  15.4641
    15.7017

          k = 0.0000 0.3849-0.4378 (  2342 PWs)   bands (ev):

   -40.1815  -3.6672   1.3501   1.6650   4.1898   8.2608  11.7646  14.9072
    16.9282

          k = 0.0000-0.5774 0.0000 (  2370 PWs)   bands (ev):

   -40.1799  -2.7418  -1.5296   3.3596   6.5816   8.9088  10.8347  11.4405
    15.4175

          k = 0.0000-0.5774 0.1459 (  2366 PWs)   bands (ev):

   -40.1795  -2.5506  -1.4607   3.4528   5.2931   7.9542  11.2587  13.2165
    16.3995

          k = 0.0000-0.5774 0.2919 (  2368 PWs)   bands (ev):

   -40.1788  -2.0807  -1.3129   3.5090   3.6521   6.7606  11.4593  14.9854
    16.3501

          k = 0.0000-0.5774-0.4378 (  2372 PWs)   bands (ev):

   -40.1784  -1.7718  -1.2331   2.7167   3.7590   6.2922  11.4697  14.3469
    16.9711

          k = 0.1667 0.2887 0.0000 (  2368 PWs)   bands (ev):

   -40.1848  -4.7500   2.1507   3.2377   4.4979  10.4193  12.2415  13.8079
    13.9218

          k = 0.1667 0.2887 0.1459 (  2366 PWs)   bands (ev):

   -40.1843  -4.6126   2.2788   3.0967   3.7071  11.1826  11.8863  13.8698
    14.2910

          k = 0.1667 0.2887 0.2919 (  2355 PWs)   bands (ev):

   -40.1835  -4.2938   1.9196   2.5668   3.5494   9.7886  13.3435  14.6595
    14.7829

          k = 0.1667 0.2887-0.4378 (  2352 PWs)   bands (ev):

   -40.1831  -4.1032   1.3137   2.7318   3.5928   9.2103  13.4181  14.3864
    15.0614

          k = 0.1667 0.4811 0.0000 (  2357 PWs)   bands (ev):

   -40.1799  -3.1317  -0.4574   2.0891   6.3205   9.6561  11.3637  12.9118
    15.1335

          k = 0.1667 0.4811 0.1459 (  2366 PWs)   bands (ev):

   -40.1795  -2.9757  -0.3364   2.1556   5.1477   8.5346  12.7958  13.6093
    14.6849

          k = 0.1667 0.4811 0.2919 (  2362 PWs)   bands (ev):

   -40.1788  -2.6113  -0.0526   2.3226   3.4815   7.0335  13.4222  13.6276
    16.3730

          k = 0.1667 0.4811-0.4378 (  2356 PWs)   bands (ev):

   -40.1784  -2.3914   0.1287   2.4594   2.7117   6.4016  13.2548  13.4762
    17.6644

          k = 0.3333 0.5774 0.0000 (  2376 PWs)   bands (ev):

   -40.1783  -1.4807  -1.4747   0.5028   8.1016   8.1125  12.5839  12.5909
    13.8165

          k = 0.3333 0.5774 0.1459 (  2355 PWs)   bands (ev):

   -40.1779  -1.3052  -1.2991   0.5057   6.8371   6.8467  13.3854  14.2138
    14.2227

          k = 0.3333 0.5774 0.2919 (  2364 PWs)   bands (ev):

   -40.1772  -0.8842  -0.8780   0.5111   5.1217   5.1304  12.7358  16.6642
    16.6812

          k = 0.3333 0.5774-0.4378 (  2358 PWs)   bands (ev):

   -40.1768  -0.6188  -0.6126   0.5137   4.3807   4.3891  12.4740  17.5197
    17.5433

          k =-0.1667 0.0962 0.0000 (  2389 PWs)   bands (ev):

   -40.1896  -5.5934   3.4913   3.9929   5.0049   9.8740  12.3212  13.7063
    14.1754

          k =-0.1667 0.0962 0.1459 (  2369 PWs)   bands (ev):

   -40.1892  -5.4631   2.5342   4.1054   5.0793  11.2442  12.5897  13.3567
    13.8693

          k =-0.1667 0.0962 0.2919 (  2369 PWs)   bands (ev):

   -40.1883  -5.1623   1.1288   4.3064   5.2354  12.2179  12.3686  14.2987
    15.0377

          k =-0.1667 0.0962-0.4378 (  2368 PWs)   bands (ev):

   -40.1879  -4.9837   0.5251   4.4138   5.3176  11.8481  12.5062  14.6440
    16.5275

          k =-0.3333 0.1925 0.0000 (  2370 PWs)   bands (ev):

   -40.1831  -4.3356   0.7988   3.8168   4.9787  10.2526  11.1869  12.0168
    15.8409

          k =-0.3333 0.1925 0.1459 (  2366 PWs)   bands (ev):

   -40.1827  -4.1939   0.9001   3.9063   3.9232  10.0777  11.2451  12.9639
    16.6145

          k =-0.3333 0.1925 0.2919 (  2363 PWs)   bands (ev):

   -40.1819  -3.8648   1.1384   2.3955   4.0968   8.7757  11.7176  15.4639
    15.7050

          k =-0.3333 0.1925-0.4378 (  2342 PWs)   bands (ev):

   -40.1815  -3.6676   1.3447   1.6673   4.1987   8.2533  11.7678  14.9062
    16.9374

          k = 0.5000-0.2887 0.0000 (  2370 PWs)   bands (ev):

   -40.1799  -2.7385  -1.5372   3.3666   6.5902   8.8948  10.8367  11.4434
    15.4085

          k = 0.5000-0.2887 0.1459 (  2366 PWs)   bands (ev):

   -40.1795  -2.5473  -1.4683   3.4600   5.3004   7.9420  11.2601  13.2209
    16.3886

          k = 0.5000-0.2887 0.2919 (  2368 PWs)   bands (ev):

   -40.1788  -2.0775  -1.3204   3.5155   3.6596   6.7489  11.4612  14.9850
    16.3559

          k = 0.5000-0.2887-0.4378 (  2372 PWs)   bands (ev):

   -40.1784  -1.7687  -1.2406   2.7232   3.7667   6.2804  11.4718  14.3460
    16.9802

          k =-0.1667 0.2887 0.0000 (  2368 PWs)   bands (ev):

   -40.1848  -4.7500   2.1416   3.2475   4.4989  10.4252  12.2359  13.8269
    13.9015

          k =-0.1667 0.2887 0.1459 (  2366 PWs)   bands (ev):

   -40.1843  -4.6127   2.2695   3.1024   3.7128  11.1765  11.8946  13.8857
    14.2683

          k =-0.1667 0.2887 0.2919 (  2355 PWs)   bands (ev):

   -40.1835  -4.2940   1.9209   2.5571   3.5603   9.7827  13.3666  14.6605
    14.7572

          k =-0.1667 0.2887-0.4378 (  2352 PWs)   bands (ev):

   -40.1831  -4.1035   1.3150   2.7219   3.6040   9.2047  13.4411  14.3888
    15.0339

          k =-0.3333 0.3849 0.0000 (  2357 PWs)   bands (ev):

   -40.1799  -3.1309  -0.4637   2.0958   6.3252   9.6458  11.3695  12.9105
    15.1299

          k = 0.5000 0.0962 0.0000 (  2357 PWs)   bands (ev):

   -40.1799  -3.1315  -0.4589   2.0906   6.3221   9.6525  11.3694  12.9047
    15.1366

          k =-0.3333 0.3849 0.1459 (  2366 PWs)   bands (ev):

   -40.1795  -2.9751  -0.3425   2.1622   5.1526   8.5249  12.8034  13.6089
    14.6896

          k = 0.5000 0.0962 0.1459 (  2366 PWs)   bands (ev):

   -40.1795  -2.9756  -0.3378   2.1569   5.1496   8.5310  12.8037  13.6013
    14.6878

          k =-0.3333 0.3849 0.2919 (  2362 PWs)   bands (ev):

   -40.1788  -2.6113  -0.0581   2.3291   3.4867   7.0243  13.4286  13.6303
    16.3785

          k = 0.5000 0.0962 0.2919 (  2362 PWs)   bands (ev):

   -40.1788  -2.6115  -0.0536   2.3235   3.4837   7.0302  13.4255  13.6287
    16.3737

          k =-0.3333 0.3849-0.4378 (  2356 PWs)   bands (ev):

   -40.1784  -2.3918   0.1237   2.4664   2.7164   6.3926  13.2567  13.4835
    17.6532

          k = 0.5000 0.0962-0.4378 (  2356 PWs)   bands (ev):

   -40.1784  -2.3917   0.1280   2.4606   2.7132   6.3986  13.2556  13.4800
    17.6586

     the Fermi energy is     4.5944 ev

!    total energy              =     -26.16503775 Ry
     estimated scf accuracy    <       0.00000024 Ry

     The total energy is the sum of the following terms:
     one-electron contribution =      -3.48368927 Ry
     hartree contribution      =       3.87357686 Ry
     xc contribution           =      -8.11128132 Ry
     ewald contribution        =     -18.44364401 Ry

     convergence has been achieved in   5 iterations

     Forces acting on atoms (cartesian axes, Ry/au):

     atom    1 type  1   force =    -0.00007315   -0.00012671    0.00000000
     atom    2 type  2   force =    -0.00099475    0.00065879    0.00000000
     atom    3 type  2   force =     0.00106791   -0.00053209    0.00000000

     Total force =     0.001694     Total SCF correction =     0.000020


     Computing stress (Cartesian axis) and pressure

          total   stress  (Ry/bohr**3)                   (kbar)     P=     -104.34
  -0.00093585   0.00004036   0.00000000         -137.67        5.94        0.00
   0.00004036  -0.00088925   0.00000000            5.94     -130.81        0.00
   0.00000000   0.00000000  -0.00030270            0.00        0.00      -44.53


     Writing all to output data dir ./tmp/LiB2.save/ :
     XML data file, charge density, pseudopotentials, collected wavefunctions

     init_run     :      1.29s CPU      1.35s WALL (       1 calls)
     electrons    :      9.42s CPU      9.91s WALL (       1 calls)
     forces       :      0.35s CPU      0.39s WALL (       1 calls)
     stress       :      1.13s CPU      1.19s WALL (       1 calls)

     Called by init_run:
     wfcinit      :      0.72s CPU      0.76s WALL (       1 calls)
     potinit      :      0.08s CPU      0.08s WALL (       1 calls)
     hinit0       :      0.47s CPU      0.49s WALL (       1 calls)

     Called by electrons:
     c_bands      :      8.35s CPU      8.77s WALL (       5 calls)
     sum_band     :      0.98s CPU      1.03s WALL (       5 calls)
     v_of_rho     :      0.11s CPU      0.12s WALL (       6 calls)
     mix_rho      :      0.01s CPU      0.01s WALL (       5 calls)

     Called by c_bands:
     init_us_2    :      0.29s CPU      0.31s WALL (     676 calls)
     init_us_2:cp :      0.29s CPU      0.31s WALL (     676 calls)
     cegterg      :      7.98s CPU      8.38s WALL (     260 calls)

     Called by *egterg:
     cdiaghg      :      0.12s CPU      0.12s WALL (    1258 calls)
     h_psi        :      6.85s CPU      7.20s WALL (    1310 calls)
     g_psi        :      0.04s CPU      0.04s WALL (     998 calls)

     Called by h_psi:
     h_psi:calbec :      0.69s CPU      0.72s WALL (    1310 calls)
     vloc_psi     :      5.59s CPU      5.88s WALL (    1310 calls)
     add_vuspsi   :      0.52s CPU      0.55s WALL (    1310 calls)

     General routines
     calbec       :      0.99s CPU      1.05s WALL (    1570 calls)
     fft          :      0.26s CPU      0.27s WALL (      84 calls)
     ffts         :      0.00s CPU      0.00s WALL (       5 calls)
     fftw         :      5.32s CPU      5.60s WALL (   16594 calls)


     PWSCF        :     12.28s CPU     12.96s WALL


   This run was terminated on:  19:28:33  14Dec2024            

=------------------------------------------------------------------------------=
   JOB DONE.
=------------------------------------------------------------------------------=
