
     Program PWSCF v.7.3 starts on 14Dec2024 at 21:10:18 

     This program is part of the open-source Quantum ESPRESSO suite
     for quantum simulation of materials; please cite
         "P. Giannozzi et al., J. Phys.:Condens. Matter 21 395502 (2009);
         "P. Giannozzi et al., J. Phys.:Condens. Matter 29 465901 (2017);
         "P. Giannozzi et al., J. Chem. Phys. 152 154105 (2020);
          URL http://www.quantum-espresso.org", 
     in publications or presentations arising from this work. More details at
     http://www.quantum-espresso.org/quote

     Serial version
     5022 MiB available memory on the printing compute node when the environment starts

     Waiting for input...
     Reading input from standard input

     Current dimensions of program PWSCF are:
     Max number of different atomic species (ntypx) = 10
     Max number of k-points (npk) =  40000
     Max angular momentum in pseudopotentials (lmaxx) =  4
     Message from routine iosys:
     BEWARE:  force calculation with tetrahedra (not recommanded)
     Message from routine iosys:
     BEWARE: stress calculation with tetrahedra (not recommanded)


     G-vector sticks info
     --------------------
     sticks:   dense  smooth     PW     G-vecs:    dense   smooth      PW
     Sum         559     559    163                12303    12303    2041

     Using Slab Decomposition



     bravais-lattice index     =            4
     lattice parameter (alat)  =       5.8260  a.u.
     unit-cell volume          =     195.5727 (a.u.)^3
     number of atoms/cell      =            3
     number of atomic types    =            2
     number of electrons       =         9.00
     number of Kohn-Sham states=            9
     kinetic-energy cutoff     =      60.0000  Ry
     charge density cutoff     =     240.0000  Ry
     scf convergence threshold =      1.0E-06
     mixing beta               =       0.7000
     number of iterations used =            8  plain     mixing
     Exchange-correlation= PBE
                           (   1   4   3   4   0   0   0)

     celldm(1)=   5.826000  celldm(2)=   0.000000  celldm(3)=   1.142000
     celldm(4)=   0.000000  celldm(5)=   0.000000  celldm(6)=   0.000000

     crystal axes: (cart. coord. in units of alat)
               a(1) = (   1.000000   0.000000   0.000000 )  
               a(2) = (  -0.500000   0.866025   0.000000 )  
               a(3) = (   0.000000   0.000000   1.142000 )  

     reciprocal axes: (cart. coord. in units 2 pi/alat)
               b(1) = (  1.000000  0.577350 -0.000000 )  
               b(2) = (  0.000000  1.154701  0.000000 )  
               b(3) = (  0.000000 -0.000000  0.875657 )  


     PseudoPot. # 1 for Li read from file:
     ./PSEUDO/Li_ONCV_PBE_sr.upf
     MD5 check sum: 50ff420e78310ffa21704f3361e624a4
     Pseudo is Norm-conserving, Zval =  3.0
     Generated using ONCVPSP code by D. R. Hamann
     Using radial grid of 1944 points,  4 beta functions with: 
                l(1) =   0
                l(2) =   0
                l(3) =   1
                l(4) =   1

     PseudoPot. # 2 for B  read from file:
     ./PSEUDO/B_ONCV_PBE_sr.upf
     MD5 check sum: 12e13f68e8dc593c0a1d43390bab284b
     Pseudo is Norm-conserving + core correction, Zval =  3.0
     Generated using ONCVPSP code by D. R. Hamann
     Using radial grid of 1534 points,  4 beta functions with: 
                l(1) =   0
                l(2) =   0
                l(3) =   1
                l(4) =   1

     atomic species   valence    mass     pseudopotential
     Li                3.00     6.94000     Li( 1.00)
     B                 3.00    10.81000     B ( 1.00)

     24 Sym. Ops., with inversion, found



   Cartesian axes

     site n.     atom                  positions (alat units)
         1        Li     tau(   1) = (   0.0000000   0.0000000   0.0000000  )
         2        B      tau(   2) = (   0.0000000   0.5773503   0.5710000  )
         3        B      tau(   3) = (   0.5000000   0.2886751   0.5710000  )

     number of k points=    50 (tetrahedron method)
                       cart. coord. in units 2pi/alat
        k(    1) = (   0.0000000   0.0000000   0.0000000), wk =   0.0039062
        k(    2) = (   0.0000000   0.0000000   0.1094571), wk =   0.0078125
        k(    3) = (   0.0000000   0.0000000   0.2189142), wk =   0.0078125
        k(    4) = (   0.0000000   0.0000000   0.3283713), wk =   0.0078125
        k(    5) = (   0.0000000   0.0000000  -0.4378284), wk =   0.0039062
        k(    6) = (   0.0000000   0.1443376   0.0000000), wk =   0.0234375
        k(    7) = (   0.0000000   0.1443376   0.1094571), wk =   0.0468750
        k(    8) = (   0.0000000   0.1443376   0.2189142), wk =   0.0468750
        k(    9) = (   0.0000000   0.1443376   0.3283713), wk =   0.0468750
        k(   10) = (   0.0000000   0.1443376  -0.4378284), wk =   0.0234375
        k(   11) = (   0.0000000   0.2886751   0.0000000), wk =   0.0234375
        k(   12) = (   0.0000000   0.2886751   0.1094571), wk =   0.0468750
        k(   13) = (   0.0000000   0.2886751   0.2189142), wk =   0.0468750
        k(   14) = (   0.0000000   0.2886751   0.3283713), wk =   0.0468750
        k(   15) = (   0.0000000   0.2886751  -0.4378284), wk =   0.0234375
        k(   16) = (   0.0000000   0.4330127   0.0000000), wk =   0.0234375
        k(   17) = (   0.0000000   0.4330127   0.1094571), wk =   0.0468750
        k(   18) = (   0.0000000   0.4330127   0.2189142), wk =   0.0468750
        k(   19) = (   0.0000000   0.4330127   0.3283713), wk =   0.0468750
        k(   20) = (   0.0000000   0.4330127  -0.4378284), wk =   0.0234375
        k(   21) = (   0.0000000  -0.5773503   0.0000000), wk =   0.0117188
        k(   22) = (   0.0000000  -0.5773503   0.1094571), wk =   0.0234375
        k(   23) = (   0.0000000  -0.5773503   0.2189142), wk =   0.0234375
        k(   24) = (   0.0000000  -0.5773503   0.3283713), wk =   0.0234375
        k(   25) = (   0.0000000  -0.5773503  -0.4378284), wk =   0.0117188
        k(   26) = (   0.1250000   0.2165064   0.0000000), wk =   0.0234375
        k(   27) = (   0.1250000   0.2165064   0.1094571), wk =   0.0468750
        k(   28) = (   0.1250000   0.2165064   0.2189142), wk =   0.0468750
        k(   29) = (   0.1250000   0.2165064   0.3283713), wk =   0.0468750
        k(   30) = (   0.1250000   0.2165064  -0.4378284), wk =   0.0234375
        k(   31) = (   0.1250000   0.3608439   0.0000000), wk =   0.0468750
        k(   32) = (   0.1250000   0.3608439   0.1094571), wk =   0.0937500
        k(   33) = (   0.1250000   0.3608439   0.2189142), wk =   0.0937500
        k(   34) = (   0.1250000   0.3608439   0.3283713), wk =   0.0937500
        k(   35) = (   0.1250000   0.3608439  -0.4378284), wk =   0.0468750
        k(   36) = (   0.1250000   0.5051815   0.0000000), wk =   0.0468750
        k(   37) = (   0.1250000   0.5051815   0.1094571), wk =   0.0937500
        k(   38) = (   0.1250000   0.5051815   0.2189142), wk =   0.0937500
        k(   39) = (   0.1250000   0.5051815   0.3283713), wk =   0.0937500
        k(   40) = (   0.1250000   0.5051815  -0.4378284), wk =   0.0468750
        k(   41) = (   0.2500000   0.4330127   0.0000000), wk =   0.0234375
        k(   42) = (   0.2500000   0.4330127   0.1094571), wk =   0.0468750
        k(   43) = (   0.2500000   0.4330127   0.2189142), wk =   0.0468750
        k(   44) = (   0.2500000   0.4330127   0.3283713), wk =   0.0468750
        k(   45) = (   0.2500000   0.4330127  -0.4378284), wk =   0.0234375
        k(   46) = (   0.2500000   0.5773503   0.0000000), wk =   0.0234375
        k(   47) = (   0.2500000   0.5773503   0.1094571), wk =   0.0468750
        k(   48) = (   0.2500000   0.5773503   0.2189142), wk =   0.0468750
        k(   49) = (   0.2500000   0.5773503   0.3283713), wk =   0.0468750
        k(   50) = (   0.2500000   0.5773503  -0.4378284), wk =   0.0234375

     Dense  grid:    12303 G-vectors     FFT dimensions: (  30,  30,  36)

     Estimated max dynamical RAM per process >      20.60 MB

     Initial potential from superposition of free atoms

     starting charge       8.9949, renormalised to       9.0000
     Starting wfcs are   10 randomized atomic wfcs

     total cpu time spent up to now is        0.9 secs

     Self-consistent Calculation

     iteration #  1     ecut=    60.00 Ry     beta= 0.70
     Davidson diagonalization with overlap
     ethr =  1.00E-02,  avg # of iterations =  4.2

     total cpu time spent up to now is        2.3 secs

     total energy              =     -26.12367867 Ry
     estimated scf accuracy    <       0.14702221 Ry

     iteration #  2     ecut=    60.00 Ry     beta= 0.70
     Davidson diagonalization with overlap
     ethr =  1.63E-03,  avg # of iterations =  2.7

     total cpu time spent up to now is        3.5 secs

     total energy              =     -26.16077245 Ry
     estimated scf accuracy    <       0.01143600 Ry

     iteration #  3     ecut=    60.00 Ry     beta= 0.70
     Davidson diagonalization with overlap
     ethr =  1.27E-04,  avg # of iterations =  3.4

     total cpu time spent up to now is        4.5 secs

     total energy              =     -26.16219692 Ry
     estimated scf accuracy    <       0.00014838 Ry

     iteration #  4     ecut=    60.00 Ry     beta= 0.70
     Davidson diagonalization with overlap
     c_bands:  1 eigenvalues not converged
     ethr =  1.65E-06,  avg # of iterations =  7.6

     total cpu time spent up to now is        6.0 secs

     total energy              =     -26.16221276 Ry
     estimated scf accuracy    <       0.00001708 Ry

     iteration #  5     ecut=    60.00 Ry     beta= 0.70
     Davidson diagonalization with overlap
     ethr =  1.90E-07,  avg # of iterations =  1.9

     total cpu time spent up to now is        7.0 secs

     End of self-consistent calculation

          k = 0.0000 0.0000 0.0000 (  1511 PWs)   bands (ev):

   -40.1914  -6.0291   2.9726   5.8899   5.8899   9.9214  11.9096  11.9096
    14.1371

          k = 0.0000 0.0000 0.1095 (  1517 PWs)   bands (ev):

   -40.1912  -5.9565   2.4197   5.9209   5.9209  10.8493  12.0227  12.0227
    14.1245

          k = 0.0000 0.0000 0.2189 (  1528 PWs)   bands (ev):

   -40.1909  -5.7652   1.3526   5.9974   5.9974  12.3281  12.3281  13.0295
    14.0927

          k = 0.0000 0.0000 0.3284 (  1546 PWs)   bands (ev):

   -40.1911  -5.5446   0.4669   6.0758   6.0758  12.6979  12.6979  14.0597
    15.4539

          k = 0.0000 0.0000-0.4378 (  1552 PWs)   bands (ev):

   -40.1911  -5.4416   0.1255   6.1094   6.1094  12.8794  12.8794  14.0473
    15.4389

          k = 0.0000 0.1443 0.0000 (  1521 PWs)   bands (ev):

   -40.1899  -5.7899   3.2638   4.7146   5.3163   9.8631  12.2537  12.9927
    14.7432

          k = 0.0000 0.1443 0.1095 (  1523 PWs)   bands (ev):

   -40.1896  -5.7161   2.6895   4.7676   5.3558  10.7367  12.3871  13.0938
    14.0773

          k = 0.0000 0.1443 0.2189 (  1540 PWs)   bands (ev):

   -40.1897  -5.5215   1.5980   4.8905   5.4529  12.1299  13.2796  13.3738
    13.4947

          k = 0.0000 0.1443 0.3284 (  1542 PWs)   bands (ev):

   -40.1892  -5.2966   0.6989   5.0183   5.5551  12.5363  12.9025  13.7353
    15.7729

          k = 0.0000 0.1443-0.4378 (  1536 PWs)   bands (ev):

   -40.1886  -5.1915   0.3534   5.0733   5.5987  12.6639  12.7128  13.9297
    16.0555

          k = 0.0000 0.2887 0.0000 (  1524 PWs)   bands (ev):

   -40.1855  -5.0761   2.3880   4.1217   4.3283  10.0050  12.2417  12.7670
    15.3874

          k = 0.0000 0.2887 0.1095 (  1525 PWs)   bands (ev):

   -40.1852  -4.9988   2.4260   3.5312   4.3769  10.7912  11.9664  12.6861
    15.4359

          k = 0.0000 0.2887 0.2189 (  1539 PWs)   bands (ev):

   -40.1854  -4.7946   2.2041   2.7624   4.4979  11.0366  11.8016  13.8349
    15.5480

          k = 0.0000 0.2887 0.3284 (  1544 PWs)   bands (ev):

   -40.1851  -4.5573   1.3683   2.8315   4.6259  10.2851  12.0425  15.6241
    16.6912

          k = 0.0000 0.2887-0.4378 (  1542 PWs)   bands (ev):

   -40.1848  -4.4459   1.0207   2.8947   4.6814  10.0000  12.0942  15.6092
    16.4014

          k = 0.0000 0.4330 0.0000 (  1536 PWs)   bands (ev):

   -40.1814  -3.9137   0.0390   3.6049   5.4625  10.4146  10.4152  11.8556
    15.7107

          k = 0.0000 0.4330 0.1095 (  1539 PWs)   bands (ev):

   -40.1814  -3.8296   0.0986   3.6574   4.7647   9.6958  11.0090  12.5463
    16.3077

          k = 0.0000 0.4330 0.2189 (  1539 PWs)   bands (ev):

   -40.1810  -3.6065   0.2594   3.5027   3.7902   8.6123  11.5027  14.3881
    15.9543

          k = 0.0000 0.4330 0.3284 (  1536 PWs)   bands (ev):

   -40.1803  -3.3459   0.4638   2.4551   3.9315   7.8061  11.6132  15.0174
    16.6046

          k = 0.0000 0.4330-0.4378 (  1532 PWs)   bands (ev):

   -40.1799  -3.2228   0.5800   2.0245   3.9929   7.5108  11.6271  14.6717
    16.9537

          k = 0.0000-0.5774 0.0000 (  1552 PWs)   bands (ev):

   -40.1804  -2.7513  -1.5440   3.3491   6.5813   8.9019  10.8279  11.4483
    15.4227

          k = 0.0000-0.5774 0.1095 (  1538 PWs)   bands (ev):

   -40.1795  -2.6422  -1.5042   3.4034   5.7629   8.2857  11.1327  12.5436
    15.9921

          k = 0.0000-0.5774 0.2189 (  1542 PWs)   bands (ev):

   -40.1793  -2.3445  -1.4039   3.5391   4.3425   7.2954  11.3954  14.7635
    15.7359

          k = 0.0000-0.5774 0.3284 (  1532 PWs)   bands (ev):

   -40.1783  -1.9735  -1.2964   3.1849   3.6848   6.5600  11.4569  14.7201
    16.9961

          k = 0.0000-0.5774-0.4378 (  1528 PWs)   bands (ev):

   -40.1780  -1.7852  -1.2493   2.7229   3.7478   6.2925  11.4589  14.3560
    16.9821

          k = 0.1250 0.2165 0.0000 (  1527 PWs)   bands (ev):

   -40.1869  -5.3131   3.3067   3.8390   4.1813  10.0874  13.1654  13.4325
    13.4913

          k = 0.1250 0.2165 0.1095 (  1527 PWs)   bands (ev):

   -40.1866  -5.2370   3.2005   3.3705   4.2718  10.9675  12.7943  13.2345
    13.6915

          k = 0.1250 0.2165 0.2189 (  1531 PWs)   bands (ev):

   -40.1863  -5.0361   2.0731   3.5337   4.3845  11.8294  12.5322  13.8326
    13.9835

          k = 0.1250 0.2165 0.3284 (  1535 PWs)   bands (ev):

   -40.1859  -4.8030   1.1556   3.7130   4.4893  11.0691  12.9497  14.3391
    15.4439

          k = 0.1250 0.2165-0.4378 (  1542 PWs)   bands (ev):

   -40.1860  -4.6937   0.8033   3.7931   4.5334  10.7825  13.0110  14.5224
    15.3690

          k = 0.1250 0.3608 0.0000 (  1525 PWs)   bands (ev):

   -40.1823  -4.3706   1.2221   3.0740   4.9517  10.5921  11.4396  12.9514
    15.2363

          k = 0.1250 0.3608 0.1095 (  1531 PWs)   bands (ev):

   -40.1824  -4.2899   1.2883   3.0941   4.3297  10.7267  11.4661  13.1929
    15.5090

          k = 0.1250 0.3608 0.2189 (  1529 PWs)   bands (ev):

   -40.1818  -4.0760   1.4580   2.9082   3.4399   9.5686  12.6822  14.0600
    15.4473

          k = 0.1250 0.3608 0.3284 (  1530 PWs)   bands (ev):

   -40.1813  -3.8266   1.6399   2.0977   3.4138   8.6698  12.9148  14.3481
    16.1144

          k = 0.1250 0.3608-0.4378 (  1538 PWs)   bands (ev):

   -40.1815  -3.7090   1.6700   1.7970   3.4527   8.3311  12.9437  14.1414
    16.2484

          k = 0.1250 0.5052 0.0000 (  1550 PWs)   bands (ev):

   -40.1803  -3.0423  -0.8537   2.5392   6.3968   9.3920  11.3052  12.2327
    15.1933

          k = 0.1250 0.5052 0.1095 (  1541 PWs)   bands (ev):

   -40.1797  -2.9498  -0.7928   2.5842   5.6343   8.7193  12.0682  12.8264
    15.2686

          k = 0.1250 0.5052 0.2189 (  1535 PWs)   bands (ev):

   -40.1789  -2.7037  -0.6301   2.7029   4.2860   7.5855  12.5626  14.3343
    14.9464

          k = 0.1250 0.5052 0.3284 (  1535 PWs)   bands (ev):

   -40.1785  -2.4148  -0.4315   2.8385   3.1862   6.7004  12.6613  13.8031
    17.1016

          k = 0.1250 0.5052-0.4378 (  1528 PWs)   bands (ev):

   -40.1780  -2.2779  -0.3296   2.7195   2.9320   6.3644  12.6802  13.5572
    18.0018

          k = 0.2500 0.4330 0.0000 (  1541 PWs)   bands (ev):

   -40.1799  -3.2274   0.0576   1.4721   6.2499   9.9242  11.4259  13.7499
    15.4016

          k = 0.2500 0.4330 0.1095 (  1540 PWs)   bands (ev):

   -40.1797  -3.1404   0.1470   1.4910   5.5311   9.1549  12.3818  14.4973
    14.5423

          k = 0.2500 0.4330 0.2189 (  1538 PWs)   bands (ev):

   -40.1791  -2.9093   0.3842   1.5464   4.2414   7.8545  13.5766  14.4971
    15.4742

          k = 0.2500 0.4330 0.3284 (  1532 PWs)   bands (ev):

   -40.1783  -2.6383   0.6620   1.6390   3.1677   6.8314  13.1854  14.8751
    15.9672

          k = 0.2500 0.4330-0.4378 (  1530 PWs)   bands (ev):

   -40.1779  -2.5097   0.7936   1.7150   2.7162   6.4397  13.0078  14.8636
    16.1287

          k = 0.2500 0.5774 0.0000 (  1535 PWs)   bands (ev):

   -40.1783  -2.0387  -1.2083   0.9421   7.4441   8.6687  12.1046  12.9865
    14.1704

          k = 0.2500 0.5774 0.1095 (  1538 PWs)   bands (ev):

   -40.1783  -1.9346  -1.1323   0.9633   6.6308   7.9156  13.1643  13.6892
    13.9957

          k = 0.2500 0.5774 0.2189 (  1535 PWs)   bands (ev):

   -40.1776  -1.6522  -0.9370   1.0277   5.2326   6.6139  13.2483  14.9306
    15.2487

          k = 0.2500 0.5774 0.3284 (  1548 PWs)   bands (ev):

   -40.1779  -1.3064  -0.7229   1.1226   4.1058   5.5723  12.8021  15.1716
    17.2874

          k = 0.2500 0.5774-0.4378 (  1548 PWs)   bands (ev):

   -40.1776  -1.1343  -0.6283   1.1776   3.6622   5.1679  12.6402  15.1921
    18.0785

     the Fermi energy is     4.5834 ev

!    total energy              =     -26.16222780 Ry
     estimated scf accuracy    <       0.00000034 Ry

     The total energy is the sum of the following terms:
     one-electron contribution =      -3.47629042 Ry
     hartree contribution      =       3.86602680 Ry
     xc contribution           =      -8.10831194 Ry
     ewald contribution        =     -18.44365225 Ry

     convergence has been achieved in   5 iterations

     Forces acting on atoms (cartesian axes, Ry/au):

     atom    1 type  1   force =     0.00000000    0.00000000   -0.00000000
     atom    2 type  2   force =     0.00000000   -0.00000000    0.00000000
     atom    3 type  2   force =     0.00000000    0.00000000    0.00000000

     Total force =     0.000000     Total SCF correction =     0.000000


     Computing stress (Cartesian axis) and pressure

          total   stress  (Ry/bohr**3)                   (kbar)     P=     -120.11
  -0.00104395   0.00000000   0.00000000         -153.57        0.00        0.00
   0.00000000  -0.00104395   0.00000000            0.00     -153.57        0.00
   0.00000000   0.00000000  -0.00036156            0.00        0.00      -53.19


     Writing all to output data dir ./tmp/LiB2.save/ :
     XML data file, charge density, pseudopotentials, collected wavefunctions

     init_run     :      0.77s CPU      0.84s WALL (       1 calls)
     electrons    :      5.83s CPU      6.08s WALL (       1 calls)
     forces       :      0.16s CPU      0.17s WALL (       1 calls)
     stress       :      0.68s CPU      0.70s WALL (       1 calls)

     Called by init_run:
     wfcinit      :      0.41s CPU      0.46s WALL (       1 calls)
     potinit      :      0.07s CPU      0.07s WALL (       1 calls)
     hinit0       :      0.28s CPU      0.30s WALL (       1 calls)

     Called by electrons:
     c_bands      :      5.03s CPU      5.22s WALL (       5 calls)
     sum_band     :      0.73s CPU      0.77s WALL (       5 calls)
     v_of_rho     :      0.07s CPU      0.08s WALL (       6 calls)
     mix_rho      :      0.01s CPU      0.01s WALL (       5 calls)

     Called by c_bands:
     init_us_2    :      0.20s CPU      0.21s WALL (     650 calls)
     init_us_2:cp :      0.19s CPU      0.20s WALL (     650 calls)
     cegterg      :      4.77s CPU      4.95s WALL (     250 calls)

     Called by *egterg:
     cdiaghg      :      0.11s CPU      0.12s WALL (    1239 calls)
     h_psi        :      4.03s CPU      4.20s WALL (    1289 calls)
     g_psi        :      0.03s CPU      0.03s WALL (     989 calls)

     Called by h_psi:
     h_psi:calbec :      0.41s CPU      0.43s WALL (    1289 calls)
     vloc_psi     :      3.25s CPU      3.40s WALL (    1289 calls)
     add_vuspsi   :      0.33s CPU      0.35s WALL (    1289 calls)

     General routines
     calbec       :      0.54s CPU      0.56s WALL (    1539 calls)
     fft          :      0.19s CPU      0.19s WALL (      84 calls)
     ffts         :      0.00s CPU      0.00s WALL (       5 calls)
     fftw         :      3.16s CPU      3.31s WALL (   15926 calls)


     PWSCF        :      7.54s CPU      7.90s WALL


   This run was terminated on:  21:10:25  14Dec2024            

=------------------------------------------------------------------------------=
   JOB DONE.
=------------------------------------------------------------------------------=
