
     Program PWSCF v.7.3 starts on 14Dec2024 at 19:27:58 

     This program is part of the open-source Quantum ESPRESSO suite
     for quantum simulation of materials; please cite
         "P. Giannozzi et al., J. Phys.:Condens. Matter 21 395502 (2009);
         "P. Giannozzi et al., J. Phys.:Condens. Matter 29 465901 (2017);
         "P. Giannozzi et al., J. Chem. Phys. 152 154105 (2020);
          URL http://www.quantum-espresso.org", 
     in publications or presentations arising from this work. More details at
     http://www.quantum-espresso.org/quote

     Serial version
     5139 MiB available memory on the printing compute node when the environment starts

     Waiting for input...
     Reading input from standard input

     Current dimensions of program PWSCF are:
     Max number of different atomic species (ntypx) = 10
     Max number of k-points (npk) =  40000
     Max angular momentum in pseudopotentials (lmaxx) =  4
     Message from routine iosys:
     BEWARE:  force calculation with tetrahedra (not recommanded)
     Message from routine iosys:
     BEWARE: stress calculation with tetrahedra (not recommanded)


     G-vector sticks info
     --------------------
     sticks:   dense  smooth     PW     G-vecs:    dense   smooth      PW
     Sum         379     379    121                 6657     6657    1215

     Using Slab Decomposition



     bravais-lattice index     =            4
     lattice parameter (alat)  =       5.8260  a.u.
     unit-cell volume          =     195.5727 (a.u.)^3
     number of atoms/cell      =            3
     number of atomic types    =            2
     number of electrons       =         9.00
     number of Kohn-Sham states=            9
     kinetic-energy cutoff     =      40.0000  Ry
     charge density cutoff     =     160.0000  Ry
     scf convergence threshold =      1.0E-06
     mixing beta               =       0.7000
     number of iterations used =            8  plain     mixing
     Exchange-correlation= PBE
                           (   1   4   3   4   0   0   0)

     celldm(1)=   5.826000  celldm(2)=   0.000000  celldm(3)=   1.142000
     celldm(4)=   0.000000  celldm(5)=   0.000000  celldm(6)=   0.000000

     crystal axes: (cart. coord. in units of alat)
               a(1) = (   1.000000   0.000000   0.000000 )  
               a(2) = (  -0.500000   0.866025   0.000000 )  
               a(3) = (   0.000000   0.000000   1.142000 )  

     reciprocal axes: (cart. coord. in units 2 pi/alat)
               b(1) = (  1.000000  0.577350 -0.000000 )  
               b(2) = (  0.000000  1.154701  0.000000 )  
               b(3) = (  0.000000 -0.000000  0.875657 )  


     PseudoPot. # 1 for Li read from file:
     ./PSEUDO/Li_ONCV_PBE_sr.upf
     MD5 check sum: 50ff420e78310ffa21704f3361e624a4
     Pseudo is Norm-conserving, Zval =  3.0
     Generated using ONCVPSP code by D. R. Hamann
     Using radial grid of 1944 points,  4 beta functions with: 
                l(1) =   0
                l(2) =   0
                l(3) =   1
                l(4) =   1

     PseudoPot. # 2 for B  read from file:
     ./PSEUDO/B_ONCV_PBE_sr.upf
     MD5 check sum: 12e13f68e8dc593c0a1d43390bab284b
     Pseudo is Norm-conserving + core correction, Zval =  3.0
     Generated using ONCVPSP code by D. R. Hamann
     Using radial grid of 1534 points,  4 beta functions with: 
                l(1) =   0
                l(2) =   0
                l(3) =   1
                l(4) =   1

     atomic species   valence    mass     pseudopotential
     Li                3.00     6.94000     Li( 1.00)
     B                 3.00    10.81000     B ( 1.00)

      4 Sym. Ops. (no inversion) found



   Cartesian axes

     site n.     atom                  positions (alat units)
         1        Li     tau(   1) = (   0.0000000   0.0000000   0.0000000  )
         2        B      tau(   2) = (   0.0000000   0.5767729   0.5710000  )
         3        B      tau(   3) = (   0.4995000   0.2883865   0.5710000  )

     number of k points=    52 (tetrahedron method)
                       cart. coord. in units 2pi/alat
        k(    1) = (   0.0000000   0.0000000   0.0000000), wk =   0.0092593
        k(    2) = (   0.0000000   0.0000000   0.1459428), wk =   0.0185185
        k(    3) = (   0.0000000   0.0000000   0.2918856), wk =   0.0185185
        k(    4) = (   0.0000000   0.0000000  -0.4378284), wk =   0.0092593
        k(    5) = (   0.0000000   0.1924501   0.0000000), wk =   0.0370370
        k(    6) = (   0.0000000   0.1924501   0.1459428), wk =   0.0740741
        k(    7) = (   0.0000000   0.1924501   0.2918856), wk =   0.0740741
        k(    8) = (   0.0000000   0.1924501  -0.4378284), wk =   0.0370370
        k(    9) = (   0.0000000   0.3849002   0.0000000), wk =   0.0370370
        k(   10) = (   0.0000000   0.3849002   0.1459428), wk =   0.0740741
        k(   11) = (   0.0000000   0.3849002   0.2918856), wk =   0.0740741
        k(   12) = (   0.0000000   0.3849002  -0.4378284), wk =   0.0370370
        k(   13) = (   0.0000000  -0.5773503   0.0000000), wk =   0.0185185
        k(   14) = (   0.0000000  -0.5773503   0.1459428), wk =   0.0370370
        k(   15) = (   0.0000000  -0.5773503   0.2918856), wk =   0.0370370
        k(   16) = (   0.0000000  -0.5773503  -0.4378284), wk =   0.0185185
        k(   17) = (   0.1666667   0.2886751   0.0000000), wk =   0.0185185
        k(   18) = (   0.1666667   0.2886751   0.1459428), wk =   0.0370370
        k(   19) = (   0.1666667   0.2886751   0.2918856), wk =   0.0370370
        k(   20) = (   0.1666667   0.2886751  -0.4378284), wk =   0.0185185
        k(   21) = (   0.1666667   0.4811252   0.0000000), wk =   0.0370370
        k(   22) = (   0.1666667   0.4811252   0.1459428), wk =   0.0740741
        k(   23) = (   0.1666667   0.4811252   0.2918856), wk =   0.0740741
        k(   24) = (   0.1666667   0.4811252  -0.4378284), wk =   0.0370370
        k(   25) = (   0.3333333   0.5773503   0.0000000), wk =   0.0185185
        k(   26) = (   0.3333333   0.5773503   0.1459428), wk =   0.0370370
        k(   27) = (   0.3333333   0.5773503   0.2918856), wk =   0.0370370
        k(   28) = (   0.3333333   0.5773503  -0.4378284), wk =   0.0185185
        k(   29) = (  -0.1666667   0.0962250   0.0000000), wk =   0.0185185
        k(   30) = (  -0.1666667   0.0962250   0.1459428), wk =   0.0370370
        k(   31) = (  -0.1666667   0.0962250   0.2918856), wk =   0.0370370
        k(   32) = (  -0.1666667   0.0962250  -0.4378284), wk =   0.0185185
        k(   33) = (  -0.3333333   0.1924501   0.0000000), wk =   0.0185185
        k(   34) = (  -0.3333333   0.1924501   0.1459428), wk =   0.0370370
        k(   35) = (  -0.3333333   0.1924501   0.2918856), wk =   0.0370370
        k(   36) = (  -0.3333333   0.1924501  -0.4378284), wk =   0.0185185
        k(   37) = (   0.5000000  -0.2886751   0.0000000), wk =   0.0092593
        k(   38) = (   0.5000000  -0.2886751   0.1459428), wk =   0.0185185
        k(   39) = (   0.5000000  -0.2886751   0.2918856), wk =   0.0185185
        k(   40) = (   0.5000000  -0.2886751  -0.4378284), wk =   0.0092593
        k(   41) = (  -0.1666667   0.2886751   0.0000000), wk =   0.0370370
        k(   42) = (  -0.1666667   0.2886751   0.1459428), wk =   0.0740741
        k(   43) = (  -0.1666667   0.2886751   0.2918856), wk =   0.0740741
        k(   44) = (  -0.1666667   0.2886751  -0.4378284), wk =   0.0370370
        k(   45) = (  -0.3333333   0.3849002   0.0000000), wk =   0.0370370
        k(   46) = (   0.5000000   0.0962250   0.0000000), wk =   0.0370370
        k(   47) = (  -0.3333333   0.3849002   0.1459428), wk =   0.0740741
        k(   48) = (   0.5000000   0.0962250   0.1459428), wk =   0.0740741
        k(   49) = (  -0.3333333   0.3849002   0.2918856), wk =   0.0740741
        k(   50) = (   0.5000000   0.0962250   0.2918856), wk =   0.0740741
        k(   51) = (  -0.3333333   0.3849002  -0.4378284), wk =   0.0370370
        k(   52) = (   0.5000000   0.0962250  -0.4378284), wk =   0.0370370

     Dense  grid:     6657 G-vectors     FFT dimensions: (  24,  24,  27)

     Estimated max dynamical RAM per process >      11.49 MB

     Initial potential from superposition of free atoms

     starting charge       8.9949, renormalised to       9.0000
     Starting wfcs are   10 randomized atomic wfcs

     total cpu time spent up to now is        0.7 secs

     Self-consistent Calculation

     iteration #  1     ecut=    40.00 Ry     beta= 0.70
     Davidson diagonalization with overlap
     ethr =  1.00E-02,  avg # of iterations =  4.3

     total cpu time spent up to now is        1.9 secs

     total energy              =     -26.04604309 Ry
     estimated scf accuracy    <       0.14647064 Ry

     iteration #  2     ecut=    40.00 Ry     beta= 0.70
     Davidson diagonalization with overlap
     ethr =  1.63E-03,  avg # of iterations =  2.6

     total cpu time spent up to now is        2.7 secs

     total energy              =     -26.08266892 Ry
     estimated scf accuracy    <       0.01081554 Ry

     iteration #  3     ecut=    40.00 Ry     beta= 0.70
     Davidson diagonalization with overlap
     ethr =  1.20E-04,  avg # of iterations =  4.2

     total cpu time spent up to now is        3.9 secs

     total energy              =     -26.08381241 Ry
     estimated scf accuracy    <       0.00016862 Ry

     iteration #  4     ecut=    40.00 Ry     beta= 0.70
     Davidson diagonalization with overlap
     ethr =  1.87E-06,  avg # of iterations =  6.3

     total cpu time spent up to now is        4.8 secs

     total energy              =     -26.08381699 Ry
     estimated scf accuracy    <       0.00002042 Ry

     iteration #  5     ecut=    40.00 Ry     beta= 0.70
     Davidson diagonalization with overlap
     ethr =  2.27E-07,  avg # of iterations =  1.7

     total cpu time spent up to now is        5.4 secs

     End of self-consistent calculation

          k = 0.0000 0.0000 0.0000 (   823 PWs)   bands (ev):

   -40.1974  -6.0253   3.0034   5.9416   5.9656   9.9575  11.9444  11.9706
    14.1245

          k = 0.0000 0.0000 0.1459 (   829 PWs)   bands (ev):

   -40.2064  -5.9006   2.1132   5.9991   6.0232  11.5130  12.1365  12.1634
    14.1301

          k = 0.0000 0.0000 0.2919 (   842 PWs)   bands (ev):

   -40.2294  -5.6148   0.7542   6.1088   6.1333  12.6172  12.6464  14.1228
    14.8231

          k = 0.0000 0.0000-0.4378 (   830 PWs)   bands (ev):

   -40.2029  -5.4463   0.1716   6.1725   6.1972  12.9260  12.9572  14.1177
    15.4239

          k = 0.0000 0.1925 0.0000 (   828 PWs)   bands (ev):

   -40.2017  -5.5996   3.5164   4.0368   5.0446   9.8994  12.3536  13.7661
    14.2730

          k = 0.0000 0.1925 0.1459 (   824 PWs)   bands (ev):

   -40.1894  -5.4713   2.5656   4.1517   5.1202  11.2659  12.6251  13.4349
    13.9321

          k = 0.0000 0.1925 0.2919 (   832 PWs)   bands (ev):

   -40.2029  -5.1756   1.1723   4.3525   5.2754  12.2596  12.4015  14.3639
    15.0757

          k = 0.0000 0.1925-0.4378 (   836 PWs)   bands (ev):

   -40.2095  -5.0009   0.5714   4.4614   5.3594  11.8965  12.5165  14.7230
    16.5347

          k = 0.0000 0.3849 0.0000 (   838 PWs)   bands (ev):

   -40.2106  -4.3415   0.8183   3.8519   5.0073  10.2591  11.2542  12.0352
    15.9185

          k = 0.0000 0.3849 0.1459 (   834 PWs)   bands (ev):

   -40.2007  -4.2007   0.9185   3.9422   3.9522  10.1252  11.2535  12.9924
    16.6317

          k = 0.0000 0.3849 0.2919 (   835 PWs)   bands (ev):

   -40.1991  -3.8754   1.1542   2.4280   4.1339   8.8245  11.7148  15.4568
    15.7361

          k = 0.0000 0.3849-0.4378 (   840 PWs)   bands (ev):

   -40.2066  -3.6815   1.3599   1.6968   4.2394   8.3028  11.7558  14.8956
    17.0065

          k = 0.0000-0.5774 0.0000 (   848 PWs)   bands (ev):

   -40.2253  -2.7544  -1.5139   3.3981   6.6219   8.9459  10.8413  11.4416
    15.4905

          k = 0.0000-0.5774 0.1459 (   848 PWs)   bands (ev):

   -40.2244  -2.5631  -1.4492   3.4922   5.3213   7.9898  11.2665  13.2386
    16.4679

          k = 0.0000-0.5774 0.2919 (   820 PWs)   bands (ev):

   -40.1613  -2.0933  -1.3032   3.5321   3.6976   6.8091  11.4543  14.9772
    16.4043

          k = 0.0000-0.5774-0.4378 (   820 PWs)   bands (ev):

   -40.1609  -1.7856  -1.2270   2.7385   3.8099   6.3472  11.4551  14.3360
    17.1115

          k = 0.1667 0.2887 0.0000 (   846 PWs)   bands (ev):

   -40.2283  -4.7564   2.1638   3.2738   4.5244  10.4420  12.3121  13.8653
    13.9466

          k = 0.1667 0.2887 0.1459 (   829 PWs)   bands (ev):

   -40.1915  -4.6196   2.2952   3.1280   3.7499  11.2387  11.9148  13.9170
    14.3155

          k = 0.1667 0.2887 0.2919 (   834 PWs)   bands (ev):

   -40.1990  -4.3052   1.9538   2.5841   3.5905   9.8297  13.3825  14.6581
    14.8052

          k = 0.1667 0.2887-0.4378 (   842 PWs)   bands (ev):

   -40.2138  -4.1184   1.3517   2.7500   3.6286   9.2430  13.4431  14.4175
    15.0862

          k = 0.1667 0.4811 0.0000 (   840 PWs)   bands (ev):

   -40.2059  -3.1382  -0.4505   2.1232   6.3567   9.7048  11.3775  12.9429
    15.1707

          k = 0.1667 0.4811 0.1459 (   839 PWs)   bands (ev):

   -40.2032  -2.9827  -0.3297   2.1875   5.1792   8.5745  12.8248  13.6288
    14.7057

          k = 0.1667 0.4811 0.2919 (   835 PWs)   bands (ev):

   -40.1927  -2.6204  -0.0473   2.3522   3.5091   7.0691  13.4338  13.6798
    16.4339

          k = 0.1667 0.4811-0.4378 (   832 PWs)   bands (ev):

   -40.1858  -2.4016   0.1330   2.4882   2.7383   6.4341  13.3146  13.4899
    17.7253

          k = 0.3333 0.5774 0.0000 (   840 PWs)   bands (ev):

   -40.2003  -1.4873  -1.4811   0.5490   8.1482   8.1591  12.6033  12.6107
    13.7977

          k = 0.3333 0.5774 0.1459 (   840 PWs)   bands (ev):

   -40.1990  -1.3116  -1.3053   0.5436   6.8708   6.8805  13.4048  14.2555
    14.2646

          k = 0.3333 0.5774 0.2919 (   843 PWs)   bands (ev):

   -40.2078  -0.8911  -0.8848   0.5401   5.1457   5.1545  12.8024  16.7299
    16.7497

          k = 0.3333 0.5774-0.4378 (   834 PWs)   bands (ev):

   -40.1863  -0.6260  -0.6196   0.5385   4.4040   4.4126  12.5655  16.6180
    17.5936

          k =-0.1667 0.0962 0.0000 (   828 PWs)   bands (ev):

   -40.2017  -5.5996   3.5167   4.0263   5.0568   9.9015  12.3603  13.7530
    14.2698

          k =-0.1667 0.0962 0.1459 (   824 PWs)   bands (ev):

   -40.1894  -5.4713   2.5658   4.1411   5.1326  11.2701  12.6289  13.4322
    13.9184

          k =-0.1667 0.0962 0.2919 (   832 PWs)   bands (ev):

   -40.2029  -5.1757   1.1727   4.3416   5.2883  12.2613  12.4045  14.3484
    15.0766

          k =-0.1667 0.0962-0.4378 (   836 PWs)   bands (ev):

   -40.2095  -5.0010   0.5718   4.4502   5.3725  11.8920  12.5262  14.7046
    16.5372

          k =-0.3333 0.1925 0.0000 (   838 PWs)   bands (ev):

   -40.2106  -4.3414   0.8126   3.8600   5.0091  10.2613  11.2473  12.0383
    15.9094

          k =-0.3333 0.1925 0.1459 (   834 PWs)   bands (ev):

   -40.2007  -4.2007   0.9129   3.9505   3.9540  10.1190  11.2555  12.9952
    16.6311

          k =-0.3333 0.1925 0.2919 (   835 PWs)   bands (ev):

   -40.1991  -3.8756   1.1490   2.4299   4.1426   8.8172  11.7179  15.4565
    15.7396

          k =-0.3333 0.1925-0.4378 (   840 PWs)   bands (ev):

   -40.2066  -3.6819   1.3544   1.6992   4.2484   8.2952  11.7591  14.8945
    17.0157

          k = 0.5000-0.2887 0.0000 (   848 PWs)   bands (ev):

   -40.2253  -2.7510  -1.5218   3.4052   6.6306   8.9319  10.8434  11.4449
    15.4811

          k = 0.5000-0.2887 0.1459 (   848 PWs)   bands (ev):

   -40.2244  -2.5597  -1.4570   3.4994   5.3286   7.9776  11.2679  13.2432
    16.4564

          k = 0.5000-0.2887 0.2919 (   820 PWs)   bands (ev):

   -40.1613  -2.0900  -1.3109   3.5387   3.7052   6.7972  11.4563  14.9767
    16.4102

          k = 0.5000-0.2887-0.4378 (   820 PWs)   bands (ev):

   -40.1609  -1.7824  -1.2346   2.7450   3.8177   6.3354  11.4572  14.3349
    17.1208

          k =-0.1667 0.2887 0.0000 (   846 PWs)   bands (ev):

   -40.2283  -4.7564   2.1546   3.2837   4.5254  10.4481  12.3064  13.8841
    13.9266

          k =-0.1667 0.2887 0.1459 (   829 PWs)   bands (ev):

   -40.1915  -4.6196   2.2858   3.1336   3.7558  11.2325  11.9232  13.9330
    14.2930

          k =-0.1667 0.2887 0.2919 (   834 PWs)   bands (ev):

   -40.1990  -4.3054   1.9551   2.5743   3.6015   9.8237  13.4056  14.6593
    14.7799

          k =-0.1667 0.2887-0.4378 (   842 PWs)   bands (ev):

   -40.2138  -4.1187   1.3531   2.7401   3.6398   9.2373  13.4660  14.4199
    15.0589

          k =-0.3333 0.3849 0.0000 (   840 PWs)   bands (ev):

   -40.2059  -3.1374  -0.4569   2.1300   6.3614   9.6945  11.3836  12.9416
    15.1666

          k = 0.5000 0.0962 0.0000 (   840 PWs)   bands (ev):

   -40.2059  -3.1380  -0.4521   2.1248   6.3583   9.7012  11.3833  12.9357
    15.1735

          k =-0.3333 0.3849 0.1459 (   839 PWs)   bands (ev):

   -40.2032  -2.9821  -0.3359   2.1942   5.1842   8.5647  12.8325  13.6287
    14.7102

          k = 0.5000 0.0962 0.1459 (   839 PWs)   bands (ev):

   -40.2032  -2.9826  -0.3311   2.1889   5.1812   8.5708  12.8326  13.6210
    14.7085

          k =-0.3333 0.3849 0.2919 (   835 PWs)   bands (ev):

   -40.1927  -2.6204  -0.0529   2.3588   3.5144   7.0598  13.4400  13.6826
    16.4398

          k = 0.5000 0.0962 0.2919 (   835 PWs)   bands (ev):

   -40.1927  -2.6206  -0.0483   2.3531   3.5113   7.0658  13.4368  13.6810
    16.4348

          k =-0.3333 0.3849-0.4378 (   832 PWs)   bands (ev):

   -40.1858  -2.4020   0.1279   2.4953   2.7432   6.4250  13.3164  13.4972
    17.7139

          k = 0.5000 0.0962-0.4378 (   832 PWs)   bands (ev):

   -40.1858  -2.4019   0.1323   2.4895   2.7400   6.4310  13.3155  13.4936
    17.7196

     the Fermi energy is     4.6331 ev

!    total energy              =     -26.08383906 Ry
     estimated scf accuracy    <       0.00000026 Ry

     The total energy is the sum of the following terms:
     one-electron contribution =      -3.36252144 Ry
     hartree contribution      =       3.79281974 Ry
     xc contribution           =      -8.07049332 Ry
     ewald contribution        =     -18.44364404 Ry

     convergence has been achieved in   5 iterations

     Forces acting on atoms (cartesian axes, Ry/au):

     atom    1 type  1   force =    -0.00006496   -0.00011251    0.00000000
     atom    2 type  2   force =    -0.00094470    0.00062043   -0.00000000
     atom    3 type  2   force =     0.00100966   -0.00050792    0.00000000

     Total force =     0.001604     Total SCF correction =     0.000069


     Computing stress (Cartesian axis) and pressure

          total   stress  (Ry/bohr**3)                   (kbar)     P=     -343.40
  -0.00257141   0.00004052  -0.00000000         -378.27        5.96       -0.00
   0.00004052  -0.00252463   0.00000000            5.96     -371.39        0.00
  -0.00000000   0.00000000  -0.00190718           -0.00        0.00     -280.56


     Writing all to output data dir ./tmp/LiB2.save/ :
     XML data file, charge density, pseudopotentials, collected wavefunctions

     init_run     :      0.57s CPU      0.60s WALL (       1 calls)
     electrons    :      4.49s CPU      4.77s WALL (       1 calls)
     forces       :      0.07s CPU      0.08s WALL (       1 calls)
     stress       :      0.54s CPU      0.58s WALL (       1 calls)

     Called by init_run:
     wfcinit      :      0.27s CPU      0.29s WALL (       1 calls)
     potinit      :      0.05s CPU      0.05s WALL (       1 calls)
     hinit0       :      0.24s CPU      0.25s WALL (       1 calls)

     Called by electrons:
     c_bands      :      4.09s CPU      4.34s WALL (       5 calls)
     sum_band     :      0.36s CPU      0.39s WALL (       5 calls)
     v_of_rho     :      0.04s CPU      0.04s WALL (       6 calls)
     mix_rho      :      0.00s CPU      0.00s WALL (       5 calls)

     Called by c_bands:
     init_us_2    :      0.12s CPU      0.13s WALL (     676 calls)
     init_us_2:cp :      0.12s CPU      0.13s WALL (     676 calls)
     cegterg      :      3.91s CPU      4.14s WALL (     260 calls)

     Called by *egterg:
     cdiaghg      :      0.14s CPU      0.15s WALL (    1247 calls)
     h_psi        :      3.26s CPU      3.46s WALL (    1299 calls)
     g_psi        :      0.02s CPU      0.02s WALL (     987 calls)

     Called by h_psi:
     h_psi:calbec :      0.33s CPU      0.36s WALL (    1299 calls)
     vloc_psi     :      2.62s CPU      2.78s WALL (    1299 calls)
     add_vuspsi   :      0.28s CPU      0.30s WALL (    1299 calls)

     General routines
     calbec       :      0.40s CPU      0.45s WALL (    1559 calls)
     fft          :      0.15s CPU      0.16s WALL (      84 calls)
     ffts         :      0.00s CPU      0.00s WALL (       5 calls)
     fftw         :      2.49s CPU      2.65s WALL (   16448 calls)


     PWSCF        :      5.74s CPU      6.12s WALL


   This run was terminated on:  19:28: 4  14Dec2024            

=------------------------------------------------------------------------------=
   JOB DONE.
=------------------------------------------------------------------------------=
