
     Program PWSCF v.7.3 starts on 14Dec2024 at 21:10:10 

     This program is part of the open-source Quantum ESPRESSO suite
     for quantum simulation of materials; please cite
         "P. Giannozzi et al., J. Phys.:Condens. Matter 21 395502 (2009);
         "P. Giannozzi et al., J. Phys.:Condens. Matter 29 465901 (2017);
         "P. Giannozzi et al., J. Chem. Phys. 152 154105 (2020);
          URL http://www.quantum-espresso.org", 
     in publications or presentations arising from this work. More details at
     http://www.quantum-espresso.org/quote

     Serial version
     5033 MiB available memory on the printing compute node when the environment starts

     Waiting for input...
     Reading input from standard input

     Current dimensions of program PWSCF are:
     Max number of different atomic species (ntypx) = 10
     Max number of k-points (npk) =  40000
     Max angular momentum in pseudopotentials (lmaxx) =  4
     Message from routine iosys:
     BEWARE:  force calculation with tetrahedra (not recommanded)
     Message from routine iosys:
     BEWARE: stress calculation with tetrahedra (not recommanded)


     G-vector sticks info
     --------------------
     sticks:   dense  smooth     PW     G-vecs:    dense   smooth      PW
     Sum         559     559    163                12303    12303    2017

     Using Slab Decomposition



     bravais-lattice index     =            4
     lattice parameter (alat)  =       5.8260  a.u.
     unit-cell volume          =     195.5727 (a.u.)^3
     number of atoms/cell      =            3
     number of atomic types    =            2
     number of electrons       =         9.00
     number of Kohn-Sham states=            9
     kinetic-energy cutoff     =      60.0000  Ry
     charge density cutoff     =     240.0000  Ry
     scf convergence threshold =      1.0E-06
     mixing beta               =       0.7000
     number of iterations used =            8  plain     mixing
     Exchange-correlation= PBE
                           (   1   4   3   4   0   0   0)

     celldm(1)=   5.826000  celldm(2)=   0.000000  celldm(3)=   1.142000
     celldm(4)=   0.000000  celldm(5)=   0.000000  celldm(6)=   0.000000

     crystal axes: (cart. coord. in units of alat)
               a(1) = (   1.000000   0.000000   0.000000 )  
               a(2) = (  -0.500000   0.866025   0.000000 )  
               a(3) = (   0.000000   0.000000   1.142000 )  

     reciprocal axes: (cart. coord. in units 2 pi/alat)
               b(1) = (  1.000000  0.577350 -0.000000 )  
               b(2) = (  0.000000  1.154701  0.000000 )  
               b(3) = (  0.000000 -0.000000  0.875657 )  


     PseudoPot. # 1 for Li read from file:
     ./PSEUDO/Li_ONCV_PBE_sr.upf
     MD5 check sum: 50ff420e78310ffa21704f3361e624a4
     Pseudo is Norm-conserving, Zval =  3.0
     Generated using ONCVPSP code by D. R. Hamann
     Using radial grid of 1944 points,  4 beta functions with: 
                l(1) =   0
                l(2) =   0
                l(3) =   1
                l(4) =   1

     PseudoPot. # 2 for B  read from file:
     ./PSEUDO/B_ONCV_PBE_sr.upf
     MD5 check sum: 12e13f68e8dc593c0a1d43390bab284b
     Pseudo is Norm-conserving + core correction, Zval =  3.0
     Generated using ONCVPSP code by D. R. Hamann
     Using radial grid of 1534 points,  4 beta functions with: 
                l(1) =   0
                l(2) =   0
                l(3) =   1
                l(4) =   1

     atomic species   valence    mass     pseudopotential
     Li                3.00     6.94000     Li( 1.00)
     B                 3.00    10.81000     B ( 1.00)

     24 Sym. Ops., with inversion, found



   Cartesian axes

     site n.     atom                  positions (alat units)
         1        Li     tau(   1) = (   0.0000000   0.0000000   0.0000000  )
         2        B      tau(   2) = (   0.0000000   0.5773503   0.5710000  )
         3        B      tau(   3) = (   0.5000000   0.2886751   0.5710000  )

     number of k points=    12 (tetrahedron method)
                       cart. coord. in units 2pi/alat
        k(    1) = (   0.0000000   0.0000000   0.0000000), wk =   0.0312500
        k(    2) = (   0.0000000   0.0000000   0.2189142), wk =   0.0625000
        k(    3) = (   0.0000000   0.0000000  -0.4378284), wk =   0.0312500
        k(    4) = (   0.0000000   0.2886751   0.0000000), wk =   0.1875000
        k(    5) = (   0.0000000   0.2886751   0.2189142), wk =   0.3750000
        k(    6) = (   0.0000000   0.2886751  -0.4378284), wk =   0.1875000
        k(    7) = (   0.0000000  -0.5773503   0.0000000), wk =   0.0937500
        k(    8) = (   0.0000000  -0.5773503   0.2189142), wk =   0.1875000
        k(    9) = (   0.0000000  -0.5773503  -0.4378284), wk =   0.0937500
        k(   10) = (   0.2500000   0.4330127   0.0000000), wk =   0.1875000
        k(   11) = (   0.2500000   0.4330127   0.2189142), wk =   0.3750000
        k(   12) = (   0.2500000   0.4330127  -0.4378284), wk =   0.1875000

     Dense  grid:    12303 G-vectors     FFT dimensions: (  30,  30,  36)

     Estimated max dynamical RAM per process >      12.59 MB

     Initial potential from superposition of free atoms

     starting charge       8.9949, renormalised to       9.0000
     Starting wfcs are   10 randomized atomic wfcs

     total cpu time spent up to now is        0.7 secs

     Self-consistent Calculation

     iteration #  1     ecut=    60.00 Ry     beta= 0.70
     Davidson diagonalization with overlap
     ethr =  1.00E-02,  avg # of iterations =  3.6

     total cpu time spent up to now is        1.0 secs

     total energy              =     -26.12317577 Ry
     estimated scf accuracy    <       0.15001680 Ry

     iteration #  2     ecut=    60.00 Ry     beta= 0.70
     Davidson diagonalization with overlap
     ethr =  1.67E-03,  avg # of iterations =  2.4

     total cpu time spent up to now is        1.2 secs

     total energy              =     -26.16506330 Ry
     estimated scf accuracy    <       0.01705301 Ry

     iteration #  3     ecut=    60.00 Ry     beta= 0.70
     Davidson diagonalization with overlap
     ethr =  1.89E-04,  avg # of iterations =  2.7

     total cpu time spent up to now is        1.5 secs

     total energy              =     -26.16736507 Ry
     estimated scf accuracy    <       0.00014591 Ry

     iteration #  4     ecut=    60.00 Ry     beta= 0.70
     Davidson diagonalization with overlap
     ethr =  1.62E-06,  avg # of iterations =  8.2

     total cpu time spent up to now is        1.8 secs

     total energy              =     -26.16740554 Ry
     estimated scf accuracy    <       0.00002506 Ry

     iteration #  5     ecut=    60.00 Ry     beta= 0.70
     Davidson diagonalization with overlap
     ethr =  2.78E-07,  avg # of iterations =  1.7

     total cpu time spent up to now is        2.1 secs

     End of self-consistent calculation

          k = 0.0000 0.0000 0.0000 (  1511 PWs)   bands (ev):

   -40.1477  -6.0652   2.9558   5.8356   5.8356   9.9321  11.8713  11.8713
    14.1119

          k = 0.0000 0.0000 0.2189 (  1528 PWs)   bands (ev):

   -40.1472  -5.8042   1.3458   5.9419   5.9419  12.2850  12.2850  13.0321
    14.0705

          k = 0.0000 0.0000-0.4378 (  1552 PWs)   bands (ev):

   -40.1474  -5.4852   0.1262   6.0526   6.0526  12.8273  12.8273  14.0278
    15.4019

          k = 0.0000 0.2887 0.0000 (  1524 PWs)   bands (ev):

   -40.1418  -5.1125   2.3430   4.1042   4.2771  10.0050  12.2154  12.7419
    15.3521

          k = 0.0000 0.2887 0.2189 (  1539 PWs)   bands (ev):

   -40.1417  -4.8340   2.1889   2.7232   4.4446  11.0243  11.7679  13.8321
    15.5214

          k = 0.0000 0.2887-0.4378 (  1542 PWs)   bands (ev):

   -40.1410  -4.4902   1.0221   2.8432   4.6257   9.9961  12.0521  15.6295
    16.3475

          k = 0.0000-0.5774 0.0000 (  1552 PWs)   bands (ev):

   -40.1366  -2.7862  -1.5871   3.2989   6.5607   8.8840  10.7985  11.4570
    15.4264

          k = 0.0000-0.5774 0.2189 (  1542 PWs)   bands (ev):

   -40.1355  -2.3830  -1.4490   3.4867   4.3353   7.2883  11.3584  14.7613
    15.7534

          k = 0.0000-0.5774-0.4378 (  1528 PWs)   bands (ev):

   -40.1342  -1.8312  -1.2969   2.7258   3.6926   6.2913  11.4203  14.3761
    16.9783

          k = 0.2500 0.4330 0.0000 (  1541 PWs)   bands (ev):

   -40.1362  -3.2643   0.0173   1.4246   6.2306   9.9015  11.4317  13.7423
    15.3653

          k = 0.2500 0.4330 0.2189 (  1538 PWs)   bands (ev):

   -40.1354  -2.9495   0.3406   1.4987   4.2331   7.8464  13.5825  14.4730
    15.4367

          k = 0.2500 0.4330-0.4378 (  1530 PWs)   bands (ev):

   -40.1342  -2.5556   0.7445   1.6642   2.7184   6.4404  13.0183  14.8225
    16.0825

     the Fermi energy is     4.5602 ev

!    total energy              =     -26.16741835 Ry
     estimated scf accuracy    <       0.00000040 Ry

     The total energy is the sum of the following terms:
     one-electron contribution =      -3.47274099 Ry
     hartree contribution      =       3.85242844 Ry
     xc contribution           =      -8.10345355 Ry
     ewald contribution        =     -18.44365225 Ry

     convergence has been achieved in   5 iterations

     Forces acting on atoms (cartesian axes, Ry/au):

     atom    1 type  1   force =     0.00000000    0.00000000    0.00000000
     atom    2 type  2   force =     0.00000000    0.00000000    0.00000000
     atom    3 type  2   force =     0.00000000   -0.00000000    0.00000000

     Total force =     0.000000     Total SCF correction =     0.000000


     Computing stress (Cartesian axis) and pressure

          total   stress  (Ry/bohr**3)                   (kbar)     P=     -124.44
  -0.00112427   0.00000000   0.00000000         -165.39        0.00        0.00
   0.00000000  -0.00112427  -0.00000000            0.00     -165.39       -0.00
   0.00000000  -0.00000000  -0.00028922            0.00       -0.00      -42.55


     Writing all to output data dir ./tmp/LiB2.save/ :
     XML data file, charge density, pseudopotentials, collected wavefunctions

     init_run     :      0.53s CPU      0.56s WALL (       1 calls)
     electrons    :      1.35s CPU      1.40s WALL (       1 calls)
     forces       :      0.07s CPU      0.07s WALL (       1 calls)
     stress       :      0.18s CPU      0.20s WALL (       1 calls)

     Called by init_run:
     wfcinit      :      0.19s CPU      0.20s WALL (       1 calls)
     potinit      :      0.05s CPU      0.07s WALL (       1 calls)
     hinit0       :      0.28s CPU      0.29s WALL (       1 calls)

     Called by electrons:
     c_bands      :      1.13s CPU      1.17s WALL (       5 calls)
     sum_band     :      0.16s CPU      0.16s WALL (       5 calls)
     v_of_rho     :      0.05s CPU      0.08s WALL (       6 calls)
     mix_rho      :      0.01s CPU      0.01s WALL (       5 calls)

     Called by c_bands:
     init_us_2    :      0.04s CPU      0.05s WALL (     156 calls)
     init_us_2:cp :      0.04s CPU      0.05s WALL (     156 calls)
     cegterg      :      1.07s CPU      1.11s WALL (      60 calls)

     Called by *egterg:
     cdiaghg      :      0.02s CPU      0.03s WALL (     282 calls)
     h_psi        :      1.00s CPU      1.03s WALL (     294 calls)
     g_psi        :      0.01s CPU      0.01s WALL (     222 calls)

     Called by h_psi:
     h_psi:calbec :      0.09s CPU      0.10s WALL (     294 calls)
     vloc_psi     :      0.82s CPU      0.85s WALL (     294 calls)
     add_vuspsi   :      0.07s CPU      0.08s WALL (     294 calls)

     General routines
     calbec       :      0.13s CPU      0.14s WALL (     354 calls)
     fft          :      0.18s CPU      0.19s WALL (      84 calls)
     ffts         :      0.00s CPU      0.00s WALL (       5 calls)
     fftw         :      0.80s CPU      0.83s WALL (    3762 calls)


     PWSCF        :      2.22s CPU      2.35s WALL


   This run was terminated on:  21:10:13  14Dec2024            

=------------------------------------------------------------------------------=
   JOB DONE.
=------------------------------------------------------------------------------=
