
     Program PWSCF v.7.3 starts on 14Dec2024 at 19:28:12 

     This program is part of the open-source Quantum ESPRESSO suite
     for quantum simulation of materials; please cite
         "P. Giannozzi et al., J. Phys.:Condens. Matter 21 395502 (2009);
         "P. Giannozzi et al., J. Phys.:Condens. Matter 29 465901 (2017);
         "P. Giannozzi et al., J. Chem. Phys. 152 154105 (2020);
          URL http://www.quantum-espresso.org", 
     in publications or presentations arising from this work. More details at
     http://www.quantum-espresso.org/quote

     Serial version
     5130 MiB available memory on the printing compute node when the environment starts

     Waiting for input...
     Reading input from standard input

     Current dimensions of program PWSCF are:
     Max number of different atomic species (ntypx) = 10
     Max number of k-points (npk) =  40000
     Max angular momentum in pseudopotentials (lmaxx) =  4
     Message from routine iosys:
     BEWARE:  force calculation with tetrahedra (not recommanded)
     Message from routine iosys:
     BEWARE: stress calculation with tetrahedra (not recommanded)


     G-vector sticks info
     --------------------
     sticks:   dense  smooth     PW     G-vecs:    dense   smooth      PW
     Sum         559     559    163                12303    12303    2065

     Using Slab Decomposition



     bravais-lattice index     =            4
     lattice parameter (alat)  =       5.8260  a.u.
     unit-cell volume          =     195.5727 (a.u.)^3
     number of atoms/cell      =            3
     number of atomic types    =            2
     number of electrons       =         9.00
     number of Kohn-Sham states=            9
     kinetic-energy cutoff     =      60.0000  Ry
     charge density cutoff     =     240.0000  Ry
     scf convergence threshold =      1.0E-06
     mixing beta               =       0.7000
     number of iterations used =            8  plain     mixing
     Exchange-correlation= PBE
                           (   1   4   3   4   0   0   0)

     celldm(1)=   5.826000  celldm(2)=   0.000000  celldm(3)=   1.142000
     celldm(4)=   0.000000  celldm(5)=   0.000000  celldm(6)=   0.000000

     crystal axes: (cart. coord. in units of alat)
               a(1) = (   1.000000   0.000000   0.000000 )  
               a(2) = (  -0.500000   0.866025   0.000000 )  
               a(3) = (   0.000000   0.000000   1.142000 )  

     reciprocal axes: (cart. coord. in units 2 pi/alat)
               b(1) = (  1.000000  0.577350 -0.000000 )  
               b(2) = (  0.000000  1.154701  0.000000 )  
               b(3) = (  0.000000 -0.000000  0.875657 )  


     PseudoPot. # 1 for Li read from file:
     ./PSEUDO/Li_ONCV_PBE_sr.upf
     MD5 check sum: 50ff420e78310ffa21704f3361e624a4
     Pseudo is Norm-conserving, Zval =  3.0
     Generated using ONCVPSP code by D. R. Hamann
     Using radial grid of 1944 points,  4 beta functions with: 
                l(1) =   0
                l(2) =   0
                l(3) =   1
                l(4) =   1

     PseudoPot. # 2 for B  read from file:
     ./PSEUDO/B_ONCV_PBE_sr.upf
     MD5 check sum: 12e13f68e8dc593c0a1d43390bab284b
     Pseudo is Norm-conserving + core correction, Zval =  3.0
     Generated using ONCVPSP code by D. R. Hamann
     Using radial grid of 1534 points,  4 beta functions with: 
                l(1) =   0
                l(2) =   0
                l(3) =   1
                l(4) =   1

     atomic species   valence    mass     pseudopotential
     Li                3.00     6.94000     Li( 1.00)
     B                 3.00    10.81000     B ( 1.00)

      4 Sym. Ops. (no inversion) found



   Cartesian axes

     site n.     atom                  positions (alat units)
         1        Li     tau(   1) = (   0.0000000   0.0000000   0.0000000  )
         2        B      tau(   2) = (   0.0000000   0.5767729   0.5710000  )
         3        B      tau(   3) = (   0.4995000   0.2883865   0.5710000  )

     number of k points=    52 (tetrahedron method)
                       cart. coord. in units 2pi/alat
        k(    1) = (   0.0000000   0.0000000   0.0000000), wk =   0.0092593
        k(    2) = (   0.0000000   0.0000000   0.1459428), wk =   0.0185185
        k(    3) = (   0.0000000   0.0000000   0.2918856), wk =   0.0185185
        k(    4) = (   0.0000000   0.0000000  -0.4378284), wk =   0.0092593
        k(    5) = (   0.0000000   0.1924501   0.0000000), wk =   0.0370370
        k(    6) = (   0.0000000   0.1924501   0.1459428), wk =   0.0740741
        k(    7) = (   0.0000000   0.1924501   0.2918856), wk =   0.0740741
        k(    8) = (   0.0000000   0.1924501  -0.4378284), wk =   0.0370370
        k(    9) = (   0.0000000   0.3849002   0.0000000), wk =   0.0370370
        k(   10) = (   0.0000000   0.3849002   0.1459428), wk =   0.0740741
        k(   11) = (   0.0000000   0.3849002   0.2918856), wk =   0.0740741
        k(   12) = (   0.0000000   0.3849002  -0.4378284), wk =   0.0370370
        k(   13) = (   0.0000000  -0.5773503   0.0000000), wk =   0.0185185
        k(   14) = (   0.0000000  -0.5773503   0.1459428), wk =   0.0370370
        k(   15) = (   0.0000000  -0.5773503   0.2918856), wk =   0.0370370
        k(   16) = (   0.0000000  -0.5773503  -0.4378284), wk =   0.0185185
        k(   17) = (   0.1666667   0.2886751   0.0000000), wk =   0.0185185
        k(   18) = (   0.1666667   0.2886751   0.1459428), wk =   0.0370370
        k(   19) = (   0.1666667   0.2886751   0.2918856), wk =   0.0370370
        k(   20) = (   0.1666667   0.2886751  -0.4378284), wk =   0.0185185
        k(   21) = (   0.1666667   0.4811252   0.0000000), wk =   0.0370370
        k(   22) = (   0.1666667   0.4811252   0.1459428), wk =   0.0740741
        k(   23) = (   0.1666667   0.4811252   0.2918856), wk =   0.0740741
        k(   24) = (   0.1666667   0.4811252  -0.4378284), wk =   0.0370370
        k(   25) = (   0.3333333   0.5773503   0.0000000), wk =   0.0185185
        k(   26) = (   0.3333333   0.5773503   0.1459428), wk =   0.0370370
        k(   27) = (   0.3333333   0.5773503   0.2918856), wk =   0.0370370
        k(   28) = (   0.3333333   0.5773503  -0.4378284), wk =   0.0185185
        k(   29) = (  -0.1666667   0.0962250   0.0000000), wk =   0.0185185
        k(   30) = (  -0.1666667   0.0962250   0.1459428), wk =   0.0370370
        k(   31) = (  -0.1666667   0.0962250   0.2918856), wk =   0.0370370
        k(   32) = (  -0.1666667   0.0962250  -0.4378284), wk =   0.0185185
        k(   33) = (  -0.3333333   0.1924501   0.0000000), wk =   0.0185185
        k(   34) = (  -0.3333333   0.1924501   0.1459428), wk =   0.0370370
        k(   35) = (  -0.3333333   0.1924501   0.2918856), wk =   0.0370370
        k(   36) = (  -0.3333333   0.1924501  -0.4378284), wk =   0.0185185
        k(   37) = (   0.5000000  -0.2886751   0.0000000), wk =   0.0092593
        k(   38) = (   0.5000000  -0.2886751   0.1459428), wk =   0.0185185
        k(   39) = (   0.5000000  -0.2886751   0.2918856), wk =   0.0185185
        k(   40) = (   0.5000000  -0.2886751  -0.4378284), wk =   0.0092593
        k(   41) = (  -0.1666667   0.2886751   0.0000000), wk =   0.0370370
        k(   42) = (  -0.1666667   0.2886751   0.1459428), wk =   0.0740741
        k(   43) = (  -0.1666667   0.2886751   0.2918856), wk =   0.0740741
        k(   44) = (  -0.1666667   0.2886751  -0.4378284), wk =   0.0370370
        k(   45) = (  -0.3333333   0.3849002   0.0000000), wk =   0.0370370
        k(   46) = (   0.5000000   0.0962250   0.0000000), wk =   0.0370370
        k(   47) = (  -0.3333333   0.3849002   0.1459428), wk =   0.0740741
        k(   48) = (   0.5000000   0.0962250   0.1459428), wk =   0.0740741
        k(   49) = (  -0.3333333   0.3849002   0.2918856), wk =   0.0740741
        k(   50) = (   0.5000000   0.0962250   0.2918856), wk =   0.0740741
        k(   51) = (  -0.3333333   0.3849002  -0.4378284), wk =   0.0370370
        k(   52) = (   0.5000000   0.0962250  -0.4378284), wk =   0.0370370

     Dense  grid:    12303 G-vectors     FFT dimensions: (  30,  30,  36)

     Estimated max dynamical RAM per process >      21.02 MB

     Initial potential from superposition of free atoms

     starting charge       8.9949, renormalised to       9.0000
     Starting wfcs are   10 randomized atomic wfcs

     total cpu time spent up to now is        1.2 secs

     Self-consistent Calculation

     iteration #  1     ecut=    60.00 Ry     beta= 0.70
     Davidson diagonalization with overlap
     ethr =  1.00E-02,  avg # of iterations =  4.2

     total cpu time spent up to now is        2.7 secs

     total energy              =     -26.12375827 Ry
     estimated scf accuracy    <       0.14880058 Ry

     iteration #  2     ecut=    60.00 Ry     beta= 0.70
     Davidson diagonalization with overlap
     ethr =  1.65E-03,  avg # of iterations =  2.8

     total cpu time spent up to now is        4.0 secs

     total energy              =     -26.16157790 Ry
     estimated scf accuracy    <       0.01118856 Ry

     iteration #  3     ecut=    60.00 Ry     beta= 0.70
     Davidson diagonalization with overlap
     ethr =  1.24E-04,  avg # of iterations =  3.8

     total cpu time spent up to now is        5.3 secs

     total energy              =     -26.16281131 Ry
     estimated scf accuracy    <       0.00014158 Ry

     iteration #  4     ecut=    60.00 Ry     beta= 0.70
     Davidson diagonalization with overlap
     ethr =  1.57E-06,  avg # of iterations =  6.5

     total cpu time spent up to now is        6.1 secs

     total energy              =     -26.16281817 Ry
     estimated scf accuracy    <       0.00001096 Ry

     iteration #  5     ecut=    60.00 Ry     beta= 0.70
     Davidson diagonalization with overlap
     ethr =  1.22E-07,  avg # of iterations =  1.8

     total cpu time spent up to now is        7.2 secs

     End of self-consistent calculation

          k = 0.0000 0.0000 0.0000 (  1511 PWs)   bands (ev):

   -40.2031  -6.0180   2.9780   5.8947   5.9185   9.9160  11.9083  11.9345
    14.1439

          k = 0.0000 0.0000 0.1459 (  1523 PWs)   bands (ev):

   -40.2029  -5.8915   2.0806   5.9477   5.9717  11.4785  12.1060  12.1330
    14.1219

          k = 0.0000 0.0000 0.2919 (  1534 PWs)   bands (ev):

   -40.2024  -5.6002   0.7156   6.0581   6.0824  12.5808  12.6100  14.0756
    14.7794

          k = 0.0000 0.0000-0.4378 (  1552 PWs)   bands (ev):

   -40.2028  -5.4281   0.1247   6.1147   6.1392  12.8799  12.9111  14.0528
    15.4501

          k = 0.0000 0.1925 0.0000 (  1529 PWs)   bands (ev):

   -40.2006  -5.5932   3.4939   4.0059   4.9965   9.8748  12.3182  13.7251
    14.1850

          k = 0.0000 0.1925 0.1459 (  1521 PWs)   bands (ev):

   -40.1997  -5.4629   2.5370   4.1187   5.0706  11.2431  12.5897  13.3657
    13.8891

          k = 0.0000 0.1925 0.2919 (  1542 PWs)   bands (ev):

   -40.1998  -5.1623   1.1314   4.3201   5.2258  12.2212  12.3680  14.3203
    15.0409

          k = 0.0000 0.1925-0.4378 (  1540 PWs)   bands (ev):

   -40.1992  -4.9839   0.5277   4.4278   5.3080  11.8570  12.4993  14.6687
    16.5266

          k = 0.0000 0.3849 0.0000 (  1540 PWs)   bands (ev):

   -40.1947  -4.3354   0.8058   3.8119   4.9799  10.2525  11.1984  12.0160
    15.8561

          k = 0.0000 0.3849 0.1459 (  1533 PWs)   bands (ev):

   -40.1940  -4.1937   0.9071   3.9013   3.9242  10.0878  11.2450  12.9647
    16.6200

          k = 0.0000 0.3849 0.2919 (  1539 PWs)   bands (ev):

   -40.1936  -3.8646   1.1450   2.3963   4.0911   8.7866  11.7158  15.4671
    15.7062

          k = 0.0000 0.3849-0.4378 (  1526 PWs)   bands (ev):

   -40.1926  -3.6672   1.3515   1.6678   4.1930   8.2646  11.7655  14.9098
    16.9358

          k = 0.0000-0.5774 0.0000 (  1552 PWs)   bands (ev):

   -40.1920  -2.7418  -1.5283   3.3622   6.5850   8.9122  10.8357  11.4428
    15.4232

          k = 0.0000-0.5774 0.1459 (  1544 PWs)   bands (ev):

   -40.1913  -2.5506  -1.4594   3.4555   5.2959   7.9578  11.2598  13.2199
    16.4058

          k = 0.0000-0.5774 0.2919 (  1538 PWs)   bands (ev):

   -40.1904  -2.0808  -1.3119   3.5111   3.6550   6.7646  11.4599  14.9882
    16.3554

          k = 0.0000-0.5774-0.4378 (  1528 PWs)   bands (ev):

   -40.1896  -1.7719  -1.2321   2.7190   3.7623   6.2961  11.4700  14.3495
    16.9801

          k = 0.1667 0.2887 0.0000 (  1521 PWs)   bands (ev):

   -40.1954  -4.7497   2.1524   3.2408   4.5012  10.4224  12.2472  13.8130
    13.9245

          k = 0.1667 0.2887 0.1459 (  1535 PWs)   bands (ev):

   -40.1957  -4.6124   2.2803   3.0994   3.7100  11.1870  11.8898  13.8740
    14.2939

          k = 0.1667 0.2887 0.2919 (  1529 PWs)   bands (ev):

   -40.1947  -4.2938   1.9223   2.5685   3.5523   9.7922  13.3477  14.6625
    14.7859

          k = 0.1667 0.2887-0.4378 (  1530 PWs)   bands (ev):

   -40.1943  -4.1033   1.3166   2.7336   3.5956   9.2136  13.4216  14.3911
    15.0646

          k = 0.1667 0.4811 0.0000 (  1542 PWs)   bands (ev):

   -40.1916  -3.1314  -0.4564   2.0916   6.3238   9.6601  11.3665  12.9147
    15.1376

          k = 0.1667 0.4811 0.1459 (  1536 PWs)   bands (ev):

   -40.1910  -2.9754  -0.3354   2.1580   5.1506   8.5383  12.7991  13.6121
    14.6890

          k = 0.1667 0.4811 0.2919 (  1537 PWs)   bands (ev):

   -40.1904  -2.6112  -0.0517   2.3248   3.4841   7.0368  13.4243  13.6326
    16.3791

          k = 0.1667 0.4811-0.4378 (  1538 PWs)   bands (ev):

   -40.1901  -2.3913   0.1295   2.4615   2.7141   6.4047  13.2600  13.4783
    17.6704

          k = 0.3333 0.5774 0.0000 (  1545 PWs)   bands (ev):

   -40.1901  -1.4804  -1.4743   0.5055   8.1053   8.1162  12.5871  12.5941
    13.8188

          k = 0.3333 0.5774 0.1459 (  1527 PWs)   bands (ev):

   -40.1890  -1.3048  -1.2988   0.5085   6.8405   6.8501  13.3893  14.2185
    14.2274

          k = 0.3333 0.5774 0.2919 (  1536 PWs)   bands (ev):

   -40.1888  -0.8839  -0.8778   0.5134   5.1244   5.1331  12.7415  16.6704
    16.6875

          k = 0.3333 0.5774-0.4378 (  1566 PWs)   bands (ev):

   -40.1899  -0.6187  -0.6125   0.5156   4.3829   4.3913  12.4797  16.5960
    17.5252

          k =-0.1667 0.0962 0.0000 (  1529 PWs)   bands (ev):

   -40.2006  -5.5932   3.4941   3.9955   5.0086   9.8769  12.3249  13.7122
    14.1819

          k =-0.1667 0.0962 0.1459 (  1521 PWs)   bands (ev):

   -40.1997  -5.4629   2.5373   4.1082   5.0830  11.2473  12.5935  13.3631
    13.8753

          k =-0.1667 0.0962 0.2919 (  1542 PWs)   bands (ev):

   -40.1998  -5.1624   1.1318   4.3092   5.2386  12.2216  12.3725  14.3046
    15.0417

          k =-0.1667 0.0962-0.4378 (  1540 PWs)   bands (ev):

   -40.1992  -4.9840   0.5281   4.4167   5.3210  11.8526  12.5091  14.6502
    16.5292

          k =-0.3333 0.1925 0.0000 (  1540 PWs)   bands (ev):

   -40.1947  -4.3353   0.8001   3.8200   4.9817  10.2546  11.1915  12.0189
    15.8471

          k =-0.3333 0.1925 0.1459 (  1533 PWs)   bands (ev):

   -40.1940  -4.1937   0.9015   3.9096   3.9260  10.0815  11.2470  12.9675
    16.6194

          k =-0.3333 0.1925 0.2919 (  1539 PWs)   bands (ev):

   -40.1936  -3.8648   1.1398   2.3981   4.0998   8.7794  11.7188  15.4668
    15.7096

          k =-0.3333 0.1925-0.4378 (  1526 PWs)   bands (ev):

   -40.1926  -3.6677   1.3461   1.6702   4.2019   8.2571  11.7687  14.9088
    16.9451

          k = 0.5000-0.2887 0.0000 (  1552 PWs)   bands (ev):

   -40.1920  -2.7385  -1.5359   3.3692   6.5936   8.8982  10.8377  11.4457
    15.4141

          k = 0.5000-0.2887 0.1459 (  1544 PWs)   bands (ev):

   -40.1913  -2.5474  -1.4670   3.4627   5.3033   7.9456  11.2612  13.2243
    16.3949

          k = 0.5000-0.2887 0.2919 (  1538 PWs)   bands (ev):

   -40.1904  -2.0776  -1.3194   3.5177   3.6626   6.7529  11.4617  14.9878
    16.3612

          k = 0.5000-0.2887-0.4378 (  1528 PWs)   bands (ev):

   -40.1896  -1.7689  -1.2395   2.7254   3.7701   6.2844  11.4720  14.3486
    16.9893

          k =-0.1667 0.2887 0.0000 (  1521 PWs)   bands (ev):

   -40.1954  -4.7497   2.1433   3.2506   4.5021  10.4283  12.2416  13.8319
    13.9042

          k =-0.1667 0.2887 0.1459 (  1535 PWs)   bands (ev):

   -40.1957  -4.6125   2.2710   3.1051   3.7158  11.1809  11.8981  13.8898
    14.2712

          k =-0.1667 0.2887 0.2919 (  1529 PWs)   bands (ev):

   -40.1947  -4.2940   1.9236   2.5589   3.5633   9.7863  13.3708  14.6637
    14.7602

          k =-0.1667 0.2887-0.4378 (  1530 PWs)   bands (ev):

   -40.1943  -4.1036   1.3179   2.7237   3.6068   9.2080  13.4447  14.3935
    15.0370

          k =-0.3333 0.3849 0.0000 (  1542 PWs)   bands (ev):

   -40.1916  -3.1306  -0.4627   2.0983   6.3285   9.6498  11.3723  12.9134
    15.1339

          k = 0.5000 0.0962 0.0000 (  1542 PWs)   bands (ev):

   -40.1916  -3.1312  -0.4580   2.0931   6.3254   9.6565  11.3722  12.9076
    15.1407

          k =-0.3333 0.3849 0.1459 (  1536 PWs)   bands (ev):

   -40.1910  -2.9748  -0.3415   2.1647   5.1555   8.5286  12.8067  13.6117
    14.6936

          k = 0.5000 0.0962 0.1459 (  1536 PWs)   bands (ev):

   -40.1910  -2.9754  -0.3368   2.1594   5.1526   8.5347  12.8070  13.6040
    14.6918

          k =-0.3333 0.3849 0.2919 (  1537 PWs)   bands (ev):

   -40.1904  -2.6111  -0.0571   2.3313   3.4892   7.0276  13.4307  13.6353
    16.3846

          k = 0.5000 0.0962 0.2919 (  1537 PWs)   bands (ev):

   -40.1904  -2.6113  -0.0526   2.3257   3.4862   7.0335  13.4276  13.6337
    16.3798

          k =-0.3333 0.3849-0.4378 (  1538 PWs)   bands (ev):

   -40.1901  -2.3917   0.1245   2.4685   2.7188   6.3957  13.2619  13.4855
    17.6592

          k = 0.5000 0.0962-0.4378 (  1538 PWs)   bands (ev):

   -40.1901  -2.3916   0.1289   2.4627   2.7157   6.4017  13.2609  13.4821
    17.6646

     the Fermi energy is     4.5974 ev

!    total energy              =     -26.16283359 Ry
     estimated scf accuracy    <       0.00000022 Ry

     The total energy is the sum of the following terms:
     one-electron contribution =      -3.47968954 Ry
     hartree contribution      =       3.87036786 Ry
     xc contribution           =      -8.10986789 Ry
     ewald contribution        =     -18.44364401 Ry

     convergence has been achieved in   5 iterations

     Forces acting on atoms (cartesian axes, Ry/au):

     atom    1 type  1   force =    -0.00007369   -0.00012764    0.00000000
     atom    2 type  2   force =    -0.00098244    0.00065231    0.00000000
     atom    3 type  2   force =     0.00105614   -0.00052467    0.00000000

     Total force =     0.001674     Total SCF correction =     0.000018


     Computing stress (Cartesian axis) and pressure

          total   stress  (Ry/bohr**3)                   (kbar)     P=     -117.97
  -0.00102970   0.00004025   0.00000000         -151.47        5.92        0.00
   0.00004025  -0.00098323  -0.00000000            5.92     -144.64       -0.00
   0.00000000  -0.00000000  -0.00039296            0.00       -0.00      -57.81


     Writing all to output data dir ./tmp/LiB2.save/ :
     XML data file, charge density, pseudopotentials, collected wavefunctions

     init_run     :      1.11s CPU      1.17s WALL (       1 calls)
     electrons    :      6.82s CPU      6.02s WALL (       1 calls)
     forces       :      0.24s CPU      0.27s WALL (       1 calls)
     stress       :      0.72s CPU      0.76s WALL (       1 calls)

     Called by init_run:
     wfcinit      :      0.49s CPU      0.51s WALL (       1 calls)
     potinit      :      0.06s CPU      0.08s WALL (       1 calls)
     hinit0       :      0.54s CPU      0.56s WALL (       1 calls)

     Called by electrons:
     c_bands      :      5.97s CPU      5.11s WALL (       5 calls)
     sum_band     :      0.76s CPU      0.83s WALL (       5 calls)
     v_of_rho     :      0.08s CPU      0.09s WALL (       6 calls)
     mix_rho      :      0.01s CPU      0.01s WALL (       5 calls)

     Called by c_bands:
     init_us_2    :      0.20s CPU      0.21s WALL (     676 calls)
     init_us_2:cp :      0.20s CPU      0.21s WALL (     676 calls)
     cegterg      :      5.71s CPU      4.81s WALL (     260 calls)

     Called by *egterg:
     cdiaghg      :      0.12s CPU      0.14s WALL (    1252 calls)
     h_psi        :      4.83s CPU      3.86s WALL (    1304 calls)
     g_psi        :      0.04s CPU      0.04s WALL (     992 calls)

     Called by h_psi:
     h_psi:calbec :      0.45s CPU     -0.82s WALL (    1304 calls)
     vloc_psi     :      3.96s CPU      4.23s WALL (    1304 calls)
     add_vuspsi   :      0.38s CPU      0.41s WALL (    1304 calls)

     General routines
     calbec       :      0.63s CPU     -0.63s WALL (    1564 calls)
     fft          :      0.32s CPU      0.33s WALL (      84 calls)
     ffts         :      0.00s CPU      0.00s WALL (       5 calls)
     fftw         :      3.92s CPU      4.21s WALL (   16590 calls)


     PWSCF        :      8.93s CPU      8.31s WALL


   This run was terminated on:  19:28:20  14Dec2024            

=------------------------------------------------------------------------------=
   JOB DONE.
=------------------------------------------------------------------------------=
