
     Program PWSCF v.7.3 starts on 14Dec2024 at 19:27:53 

     This program is part of the open-source Quantum ESPRESSO suite
     for quantum simulation of materials; please cite
         "P. Giannozzi et al., J. Phys.:Condens. Matter 21 395502 (2009);
         "P. Giannozzi et al., J. Phys.:Condens. Matter 29 465901 (2017);
         "P. Giannozzi et al., J. Chem. Phys. 152 154105 (2020);
          URL http://www.quantum-espresso.org", 
     in publications or presentations arising from this work. More details at
     http://www.quantum-espresso.org/quote

     Serial version
     5127 MiB available memory on the printing compute node when the environment starts

     Waiting for input...
     Reading input from standard input

     Current dimensions of program PWSCF are:
     Max number of different atomic species (ntypx) = 10
     Max number of k-points (npk) =  40000
     Max angular momentum in pseudopotentials (lmaxx) =  4
     Message from routine iosys:
     BEWARE:  force calculation with tetrahedra (not recommanded)
     Message from routine iosys:
     BEWARE: stress calculation with tetrahedra (not recommanded)


     G-vector sticks info
     --------------------
     sticks:   dense  smooth     PW     G-vecs:    dense   smooth      PW
     Sum         283     283     91                 4373     4373     823

     Using Slab Decomposition



     bravais-lattice index     =            4
     lattice parameter (alat)  =       5.8260  a.u.
     unit-cell volume          =     195.5727 (a.u.)^3
     number of atoms/cell      =            3
     number of atomic types    =            2
     number of electrons       =         9.00
     number of Kohn-Sham states=            9
     kinetic-energy cutoff     =      30.0000  Ry
     charge density cutoff     =     120.0000  Ry
     scf convergence threshold =      1.0E-06
     mixing beta               =       0.7000
     number of iterations used =            8  plain     mixing
     Exchange-correlation= PBE
                           (   1   4   3   4   0   0   0)

     celldm(1)=   5.826000  celldm(2)=   0.000000  celldm(3)=   1.142000
     celldm(4)=   0.000000  celldm(5)=   0.000000  celldm(6)=   0.000000

     crystal axes: (cart. coord. in units of alat)
               a(1) = (   1.000000   0.000000   0.000000 )  
               a(2) = (  -0.500000   0.866025   0.000000 )  
               a(3) = (   0.000000   0.000000   1.142000 )  

     reciprocal axes: (cart. coord. in units 2 pi/alat)
               b(1) = (  1.000000  0.577350 -0.000000 )  
               b(2) = (  0.000000  1.154701  0.000000 )  
               b(3) = (  0.000000 -0.000000  0.875657 )  


     PseudoPot. # 1 for Li read from file:
     ./PSEUDO/Li_ONCV_PBE_sr.upf
     MD5 check sum: 50ff420e78310ffa21704f3361e624a4
     Pseudo is Norm-conserving, Zval =  3.0
     Generated using ONCVPSP code by D. R. Hamann
     Using radial grid of 1944 points,  4 beta functions with: 
                l(1) =   0
                l(2) =   0
                l(3) =   1
                l(4) =   1

     PseudoPot. # 2 for B  read from file:
     ./PSEUDO/B_ONCV_PBE_sr.upf
     MD5 check sum: 12e13f68e8dc593c0a1d43390bab284b
     Pseudo is Norm-conserving + core correction, Zval =  3.0
     Generated using ONCVPSP code by D. R. Hamann
     Using radial grid of 1534 points,  4 beta functions with: 
                l(1) =   0
                l(2) =   0
                l(3) =   1
                l(4) =   1

     atomic species   valence    mass     pseudopotential
     Li                3.00     6.94000     Li( 1.00)
     B                 3.00    10.81000     B ( 1.00)

      4 Sym. Ops. (no inversion) found



   Cartesian axes

     site n.     atom                  positions (alat units)
         1        Li     tau(   1) = (   0.0000000   0.0000000   0.0000000  )
         2        B      tau(   2) = (   0.0000000   0.5767729   0.5710000  )
         3        B      tau(   3) = (   0.4995000   0.2883865   0.5710000  )

     number of k points=    52 (tetrahedron method)
                       cart. coord. in units 2pi/alat
        k(    1) = (   0.0000000   0.0000000   0.0000000), wk =   0.0092593
        k(    2) = (   0.0000000   0.0000000   0.1459428), wk =   0.0185185
        k(    3) = (   0.0000000   0.0000000   0.2918856), wk =   0.0185185
        k(    4) = (   0.0000000   0.0000000  -0.4378284), wk =   0.0092593
        k(    5) = (   0.0000000   0.1924501   0.0000000), wk =   0.0370370
        k(    6) = (   0.0000000   0.1924501   0.1459428), wk =   0.0740741
        k(    7) = (   0.0000000   0.1924501   0.2918856), wk =   0.0740741
        k(    8) = (   0.0000000   0.1924501  -0.4378284), wk =   0.0370370
        k(    9) = (   0.0000000   0.3849002   0.0000000), wk =   0.0370370
        k(   10) = (   0.0000000   0.3849002   0.1459428), wk =   0.0740741
        k(   11) = (   0.0000000   0.3849002   0.2918856), wk =   0.0740741
        k(   12) = (   0.0000000   0.3849002  -0.4378284), wk =   0.0370370
        k(   13) = (   0.0000000  -0.5773503   0.0000000), wk =   0.0185185
        k(   14) = (   0.0000000  -0.5773503   0.1459428), wk =   0.0370370
        k(   15) = (   0.0000000  -0.5773503   0.2918856), wk =   0.0370370
        k(   16) = (   0.0000000  -0.5773503  -0.4378284), wk =   0.0185185
        k(   17) = (   0.1666667   0.2886751   0.0000000), wk =   0.0185185
        k(   18) = (   0.1666667   0.2886751   0.1459428), wk =   0.0370370
        k(   19) = (   0.1666667   0.2886751   0.2918856), wk =   0.0370370
        k(   20) = (   0.1666667   0.2886751  -0.4378284), wk =   0.0185185
        k(   21) = (   0.1666667   0.4811252   0.0000000), wk =   0.0370370
        k(   22) = (   0.1666667   0.4811252   0.1459428), wk =   0.0740741
        k(   23) = (   0.1666667   0.4811252   0.2918856), wk =   0.0740741
        k(   24) = (   0.1666667   0.4811252  -0.4378284), wk =   0.0370370
        k(   25) = (   0.3333333   0.5773503   0.0000000), wk =   0.0185185
        k(   26) = (   0.3333333   0.5773503   0.1459428), wk =   0.0370370
        k(   27) = (   0.3333333   0.5773503   0.2918856), wk =   0.0370370
        k(   28) = (   0.3333333   0.5773503  -0.4378284), wk =   0.0185185
        k(   29) = (  -0.1666667   0.0962250   0.0000000), wk =   0.0185185
        k(   30) = (  -0.1666667   0.0962250   0.1459428), wk =   0.0370370
        k(   31) = (  -0.1666667   0.0962250   0.2918856), wk =   0.0370370
        k(   32) = (  -0.1666667   0.0962250  -0.4378284), wk =   0.0185185
        k(   33) = (  -0.3333333   0.1924501   0.0000000), wk =   0.0185185
        k(   34) = (  -0.3333333   0.1924501   0.1459428), wk =   0.0370370
        k(   35) = (  -0.3333333   0.1924501   0.2918856), wk =   0.0370370
        k(   36) = (  -0.3333333   0.1924501  -0.4378284), wk =   0.0185185
        k(   37) = (   0.5000000  -0.2886751   0.0000000), wk =   0.0092593
        k(   38) = (   0.5000000  -0.2886751   0.1459428), wk =   0.0185185
        k(   39) = (   0.5000000  -0.2886751   0.2918856), wk =   0.0185185
        k(   40) = (   0.5000000  -0.2886751  -0.4378284), wk =   0.0092593
        k(   41) = (  -0.1666667   0.2886751   0.0000000), wk =   0.0370370
        k(   42) = (  -0.1666667   0.2886751   0.1459428), wk =   0.0740741
        k(   43) = (  -0.1666667   0.2886751   0.2918856), wk =   0.0740741
        k(   44) = (  -0.1666667   0.2886751  -0.4378284), wk =   0.0370370
        k(   45) = (  -0.3333333   0.3849002   0.0000000), wk =   0.0370370
        k(   46) = (   0.5000000   0.0962250   0.0000000), wk =   0.0370370
        k(   47) = (  -0.3333333   0.3849002   0.1459428), wk =   0.0740741
        k(   48) = (   0.5000000   0.0962250   0.1459428), wk =   0.0740741
        k(   49) = (  -0.3333333   0.3849002   0.2918856), wk =   0.0740741
        k(   50) = (   0.5000000   0.0962250   0.2918856), wk =   0.0740741
        k(   51) = (  -0.3333333   0.3849002  -0.4378284), wk =   0.0370370
        k(   52) = (   0.5000000   0.0962250  -0.4378284), wk =   0.0370370

     Dense  grid:     4373 G-vectors     FFT dimensions: (  24,  24,  24)

     Estimated max dynamical RAM per process >       7.87 MB

     Initial potential from superposition of free atoms

     starting charge       8.9949, renormalised to       9.0000
     Starting wfcs are   10 randomized atomic wfcs

     total cpu time spent up to now is        0.7 secs

     Self-consistent Calculation

     iteration #  1     ecut=    30.00 Ry     beta= 0.70
     Davidson diagonalization with overlap
     ethr =  1.00E-02,  avg # of iterations =  4.2

     total cpu time spent up to now is        1.5 secs

     total energy              =     -25.80185074 Ry
     estimated scf accuracy    <       0.15583939 Ry

     iteration #  2     ecut=    30.00 Ry     beta= 0.70
     Davidson diagonalization with overlap
     ethr =  1.73E-03,  avg # of iterations =  2.8

     total cpu time spent up to now is        2.3 secs

     total energy              =     -25.83735500 Ry
     estimated scf accuracy    <       0.01117398 Ry

     iteration #  3     ecut=    30.00 Ry     beta= 0.70
     Davidson diagonalization with overlap
     ethr =  1.24E-04,  avg # of iterations =  3.8

     total cpu time spent up to now is        2.9 secs

     total energy              =     -25.83853697 Ry
     estimated scf accuracy    <       0.00028134 Ry

     iteration #  4     ecut=    30.00 Ry     beta= 0.70
     Davidson diagonalization with overlap
     ethr =  3.13E-06,  avg # of iterations =  5.6

     total cpu time spent up to now is        3.6 secs

     total energy              =     -25.83855223 Ry
     estimated scf accuracy    <       0.00001385 Ry

     iteration #  5     ecut=    30.00 Ry     beta= 0.70
     Davidson diagonalization with overlap
     ethr =  1.54E-07,  avg # of iterations =  2.0

     total cpu time spent up to now is        4.3 secs

     End of self-consistent calculation

          k = 0.0000 0.0000 0.0000 (   539 PWs)   bands (ev):

   -39.7697  -6.0226   3.0384   6.0418   6.0642  10.0389  12.0006  12.0251
    14.1085

          k = 0.0000 0.0000 0.1459 (   533 PWs)   bands (ev):

   -39.6947  -5.9013   2.1612   6.1003   6.1229  11.6081  12.2076  12.2328
    14.1547

          k = 0.0000 0.0000 0.2919 (   522 PWs)   bands (ev):

   -39.5617  -5.6307   0.8476   6.2091   6.2322  12.7147  12.7423  14.2697
    14.9657

          k = 0.0000 0.0000-0.4378 (   540 PWs)   bands (ev):

   -39.7331  -5.4778   0.2520   6.2686   6.2919  13.0331  13.0628  14.2697
    15.3996

          k = 0.0000 0.1925 0.0000 (   537 PWs)   bands (ev):

   -39.7412  -5.5977   3.5593   4.0944   5.1219   9.9571  12.4291  13.8413
    14.4319

          k = 0.0000 0.1925 0.1459 (   533 PWs)   bands (ev):

   -39.6949  -5.4735   2.6168   4.2085   5.1976  11.3224  12.6982  13.5800
    14.0179

          k = 0.0000 0.1925 0.2919 (   534 PWs)   bands (ev):

   -39.6849  -5.1936   1.2449   4.4103   5.3636  12.3331  12.4861  14.4734
    15.1689

          k = 0.0000 0.1925-0.4378 (   546 PWs)   bands (ev):

   -39.7922  -5.0282   0.6511   4.5137   5.4306  11.9849  12.5638  14.8529
    16.5391

          k = 0.0000 0.3849 0.0000 (   543 PWs)   bands (ev):

   -39.7758  -4.3452   0.8406   3.9262   5.0588  10.2720  11.3611  12.0674
    16.0759

          k = 0.0000 0.3849 0.1459 (   539 PWs)   bands (ev):

   -39.7377  -4.2070   0.9403   4.0090   4.0197  10.1966  11.2729  13.0574
    16.6418

          k = 0.0000 0.3849 0.2919 (   545 PWs)   bands (ev):

   -39.7880  -3.8899   1.1747   2.4829   4.2039   8.8907  11.7212  15.4149
    15.7847

          k = 0.0000 0.3849-0.4378 (   546 PWs)   bands (ev):

   -39.7948  -3.6997   1.3777   1.7623   4.3087   8.3711  11.7434  14.8471
    17.1498

          k = 0.0000-0.5774 0.0000 (   546 PWs)   bands (ev):

   -39.8023  -2.7722  -1.4940   3.4673   6.6983   9.0087  10.8432  11.4298
    15.6831

          k = 0.0000-0.5774 0.1459 (   544 PWs)   bands (ev):

   -39.7864  -2.5790  -1.4239   3.5581   5.3728   8.0572  11.2842  13.2670
    16.6008

          k = 0.0000-0.5774 0.2919 (   548 PWs)   bands (ev):

   -39.8193  -2.1094  -1.2938   3.5637   3.7618   6.8879  11.4414  14.9338
    16.4768

          k = 0.0000-0.5774-0.4378 (   552 PWs)   bands (ev):

   -39.8449  -1.8020  -1.2233   2.7626   3.8691   6.4187  11.4256  14.2882
    17.3954

          k = 0.1667 0.2887 0.0000 (   543 PWs)   bands (ev):

   -39.7889  -4.7600   2.1967   3.3268   4.5790  10.4828  12.4558  13.9835
    13.9977

          k = 0.1667 0.2887 0.1459 (   540 PWs)   bands (ev):

   -39.7513  -4.6259   2.3240   3.1750   3.8102  11.3415  11.9642  14.0022
    14.3607

          k = 0.1667 0.2887 0.2919 (   547 PWs)   bands (ev):

   -39.8083  -4.3230   2.0101   2.6155   3.6447   9.8931  13.4447  14.6387
    14.8545

          k = 0.1667 0.2887-0.4378 (   542 PWs)   bands (ev):

   -39.7593  -4.1414   1.4275   2.7863   3.6920   9.2974  13.4939  14.4830
    15.1486

          k = 0.1667 0.4811 0.0000 (   544 PWs)   bands (ev):

   -39.7869  -3.1407  -0.4378   2.1674   6.4285   9.8005  11.3860  12.9926
    15.2393

          k = 0.1667 0.4811 0.1459 (   544 PWs)   bands (ev):

   -39.7866  -2.9887  -0.3185   2.2312   5.2369   8.6490  12.8697  13.6540
    14.7410

          k = 0.1667 0.4811 0.2919 (   546 PWs)   bands (ev):

   -39.8020  -2.6323  -0.0371   2.3927   3.5521   7.1251  13.4452  13.7889
    16.5403

          k = 0.1667 0.4811-0.4378 (   548 PWs)   bands (ev):

   -39.8216  -2.4183   0.1446   2.5277   2.7770   6.4843  13.4352  13.5033
    17.8289

          k = 0.3333 0.5774 0.0000 (   537 PWs)   bands (ev):

   -39.7196  -1.4911  -1.4864   0.6047   8.2465   8.2568  12.6232  12.6287
    13.7441

          k = 0.3333 0.5774 0.1459 (   552 PWs)   bands (ev):

   -39.8646  -1.3193  -1.3146   0.5769   6.9309   6.9397  13.4323  14.3158
    14.3235

          k = 0.3333 0.5774 0.2919 (   546 PWs)   bands (ev):

   -39.8136  -0.8953  -0.8905   0.5753   5.1845   5.1923  12.9560  16.8510
    16.8676

          k = 0.3333 0.5774-0.4378 (   534 PWs)   bands (ev):

   -39.6999  -0.6282  -0.6234   0.5742   4.4404   4.4479  12.7856  17.7266
    17.7503

          k =-0.1667 0.0962 0.0000 (   537 PWs)   bands (ev):

   -39.7412  -5.5978   3.5595   4.0850   5.1332   9.9587  12.4345  13.8296
    14.4289

          k =-0.1667 0.0962 0.1459 (   533 PWs)   bands (ev):

   -39.6949  -5.4735   2.6171   4.1989   5.2091  11.3259  12.7011  13.5775
    14.0054

          k =-0.1667 0.0962 0.2919 (   534 PWs)   bands (ev):

   -39.6849  -5.1937   1.2453   4.4002   5.3755  12.3365  12.4863  14.4592
    15.1697

          k =-0.1667 0.0962-0.4378 (   546 PWs)   bands (ev):

   -39.7922  -5.0283   0.6514   4.5036   5.4429  11.9807  12.5723  14.8355
    16.5418

          k =-0.3333 0.1925 0.0000 (   543 PWs)   bands (ev):

   -39.7758  -4.3452   0.8357   3.9335   5.0605  10.2736  11.3546  12.0695
    16.0680

          k =-0.3333 0.1925 0.1459 (   539 PWs)   bands (ev):

   -39.7377  -4.2070   0.9354   4.0108   4.0271  10.1908  11.2740  13.0598
    16.6428

          k =-0.3333 0.1925 0.2919 (   545 PWs)   bands (ev):

   -39.7880  -3.8902   1.1702   2.4845   4.2119   8.8840  11.7235  15.4149
    15.7874

          k =-0.3333 0.1925-0.4378 (   546 PWs)   bands (ev):

   -39.7948  -3.7001   1.3729   1.7645   4.3169   8.3641  11.7460  14.8466
    17.1580

          k = 0.5000-0.2887 0.0000 (   546 PWs)   bands (ev):

   -39.8023  -2.7698  -1.5001   3.4738   6.7064   8.9957  10.8446  11.4318
    15.6754

          k = 0.5000-0.2887 0.1459 (   544 PWs)   bands (ev):

   -39.7864  -2.5767  -1.4301   3.5647   5.3795   8.0460  11.2849  13.2705
    16.5916

          k = 0.5000-0.2887 0.2919 (   548 PWs)   bands (ev):

   -39.8193  -2.1071  -1.2998   3.5696   3.7687   6.8772  11.4427  14.9338
    16.4819

          k = 0.5000-0.2887-0.4378 (   552 PWs)   bands (ev):

   -39.8449  -1.7999  -1.2292   2.7683   3.8761   6.4081  11.4270  14.2878
    17.4040

          k =-0.1667 0.2887 0.0000 (   543 PWs)   bands (ev):

   -39.7889  -4.7601   2.1887   3.3357   4.5799  10.4882  12.4503  13.9771
    14.0029

          k =-0.1667 0.2887 0.1459 (   540 PWs)   bands (ev):

   -39.7513  -4.6260   2.3158   3.1801   3.8155  11.3357  11.9716  14.0181
    14.3385

          k =-0.1667 0.2887 0.2919 (   547 PWs)   bands (ev):

   -39.8083  -4.3232   2.0112   2.6070   3.6545   9.8877  13.4671  14.6389
    14.8295

          k =-0.1667 0.2887-0.4378 (   542 PWs)   bands (ev):

   -39.7593  -4.1417   1.4287   2.7777   3.7019   9.2924  13.5160  14.4844
    15.1218

          k =-0.3333 0.3849 0.0000 (   544 PWs)   bands (ev):

   -39.7869  -3.1401  -0.4431   2.1735   6.4329   9.7908  11.3908  12.9911
    15.2365

          k = 0.5000 0.0962 0.0000 (   544 PWs)   bands (ev):

   -39.7869  -3.1406  -0.4390   2.1688   6.4301   9.7971  11.3910  12.9862
    15.2416

          k =-0.3333 0.3849 0.1459 (   544 PWs)   bands (ev):

   -39.7866  -2.9883  -0.3237   2.2372   5.2414   8.6401  12.8762  13.6534
    14.7446

          k = 0.5000 0.0962 0.1459 (   544 PWs)   bands (ev):

   -39.7866  -2.9887  -0.3197   2.2324   5.2387   8.6458  12.8766  13.6468
    14.7436

          k =-0.3333 0.3849 0.2919 (   546 PWs)   bands (ev):

   -39.8020  -2.6324  -0.0417   2.3985   3.5568   7.1167  13.4506  13.7911
    16.5454

          k = 0.5000 0.0962 0.2919 (   546 PWs)   bands (ev):

   -39.8020  -2.6325  -0.0379   2.3935   3.5541   7.1221  13.4480  13.7897
    16.5412

          k =-0.3333 0.3849-0.4378 (   548 PWs)   bands (ev):

   -39.8216  -2.4188   0.1404   2.5339   2.7813   6.4761  13.4365  13.5099
    17.8175

          k = 0.5000 0.0962-0.4378 (   548 PWs)   bands (ev):

   -39.8216  -2.4187   0.1441   2.5287   2.7784   6.4816  13.4357  13.5069
    17.8229

     the Fermi energy is     4.6965 ev

!    total energy              =     -25.83857238 Ry
     estimated scf accuracy    <       0.00000046 Ry

     The total energy is the sum of the following terms:
     one-electron contribution =      -3.02360605 Ry
     hartree contribution      =       3.60423779 Ry
     xc contribution           =      -7.97556001 Ry
     ewald contribution        =     -18.44364411 Ry

     convergence has been achieved in   5 iterations

     Forces acting on atoms (cartesian axes, Ry/au):

     atom    1 type  1   force =    -0.00008407   -0.00014562    0.00000000
     atom    2 type  2   force =    -0.00112440    0.00074625    0.00000000
     atom    3 type  2   force =     0.00120847   -0.00060063    0.00000000

     Total force =     0.001916     Total SCF correction =     0.000223
     SCF correction compared to forces is large: reduce conv_thr to get better values


     Computing stress (Cartesian axis) and pressure

          total   stress  (Ry/bohr**3)                   (kbar)     P=     -739.04
  -0.00524724   0.00004001   0.00000000         -771.90        5.89        0.00
   0.00004001  -0.00520104  -0.00000000            5.89     -765.10       -0.00
   0.00000000  -0.00000000  -0.00462349            0.00       -0.00     -680.14


     Writing all to output data dir ./tmp/LiB2.save/ :
     XML data file, charge density, pseudopotentials, collected wavefunctions

     init_run     :      0.58s CPU      0.60s WALL (       1 calls)
     electrons    :      3.40s CPU      3.60s WALL (       1 calls)
     forces       :      0.06s CPU      0.06s WALL (       1 calls)
     stress       :      0.39s CPU      0.40s WALL (       1 calls)

     Called by init_run:
     wfcinit      :      0.24s CPU      0.25s WALL (       1 calls)
     potinit      :      0.04s CPU      0.05s WALL (       1 calls)
     hinit0       :      0.29s CPU      0.30s WALL (       1 calls)

     Called by electrons:
     c_bands      :      3.08s CPU      3.26s WALL (       5 calls)
     sum_band     :      0.29s CPU      0.31s WALL (       5 calls)
     v_of_rho     :      0.03s CPU      0.03s WALL (       6 calls)
     mix_rho      :      0.00s CPU      0.00s WALL (       5 calls)

     Called by c_bands:
     init_us_2    :      0.08s CPU      0.09s WALL (     676 calls)
     init_us_2:cp :      0.08s CPU      0.08s WALL (     676 calls)
     cegterg      :      2.93s CPU      3.10s WALL (     260 calls)

     Called by *egterg:
     cdiaghg      :      0.13s CPU      0.14s WALL (    1213 calls)
     h_psi        :      2.51s CPU      2.66s WALL (    1265 calls)
     g_psi        :      0.01s CPU      0.01s WALL (     953 calls)

     Called by h_psi:
     h_psi:calbec :      0.21s CPU      0.22s WALL (    1265 calls)
     vloc_psi     :      2.11s CPU      2.23s WALL (    1265 calls)
     add_vuspsi   :      0.18s CPU      0.19s WALL (    1265 calls)

     General routines
     calbec       :      0.25s CPU      0.26s WALL (    1525 calls)
     fft          :      0.23s CPU      0.24s WALL (      84 calls)
     ffts         :      0.00s CPU      0.00s WALL (       5 calls)
     fftw         :      1.98s CPU      2.10s WALL (   16326 calls)


     PWSCF        :      4.48s CPU      4.74s WALL


   This run was terminated on:  19:27:58  14Dec2024            

=------------------------------------------------------------------------------=
   JOB DONE.
=------------------------------------------------------------------------------=
