
     Program PWSCF v.7.3 starts on 14Dec2024 at 19:28:33 

     This program is part of the open-source Quantum ESPRESSO suite
     for quantum simulation of materials; please cite
         "P. Giannozzi et al., J. Phys.:Condens. Matter 21 395502 (2009);
         "P. Giannozzi et al., J. Phys.:Condens. Matter 29 465901 (2017);
         "P. Giannozzi et al., J. Chem. Phys. 152 154105 (2020);
          URL http://www.quantum-espresso.org", 
     in publications or presentations arising from this work. More details at
     http://www.quantum-espresso.org/quote

     Serial version
     5119 MiB available memory on the printing compute node when the environment starts

     Waiting for input...
     Reading input from standard input

     Current dimensions of program PWSCF are:
     Max number of different atomic species (ntypx) = 10
     Max number of k-points (npk) =  40000
     Max angular momentum in pseudopotentials (lmaxx) =  4
     Message from routine iosys:
     BEWARE:  force calculation with tetrahedra (not recommanded)
     Message from routine iosys:
     BEWARE: stress calculation with tetrahedra (not recommanded)


     G-vector sticks info
     --------------------
     sticks:   dense  smooth     PW     G-vecs:    dense   smooth      PW
     Sum         931     931    283                26449    26449    4193

     Using Slab Decomposition



     bravais-lattice index     =            4
     lattice parameter (alat)  =       5.8260  a.u.
     unit-cell volume          =     195.5727 (a.u.)^3
     number of atoms/cell      =            3
     number of atomic types    =            2
     number of electrons       =         9.00
     number of Kohn-Sham states=            9
     kinetic-energy cutoff     =     100.0000  Ry
     charge density cutoff     =     400.0000  Ry
     scf convergence threshold =      1.0E-06
     mixing beta               =       0.7000
     number of iterations used =            8  plain     mixing
     Exchange-correlation= PBE
                           (   1   4   3   4   0   0   0)

     celldm(1)=   5.826000  celldm(2)=   0.000000  celldm(3)=   1.142000
     celldm(4)=   0.000000  celldm(5)=   0.000000  celldm(6)=   0.000000

     crystal axes: (cart. coord. in units of alat)
               a(1) = (   1.000000   0.000000   0.000000 )  
               a(2) = (  -0.500000   0.866025   0.000000 )  
               a(3) = (   0.000000   0.000000   1.142000 )  

     reciprocal axes: (cart. coord. in units 2 pi/alat)
               b(1) = (  1.000000  0.577350 -0.000000 )  
               b(2) = (  0.000000  1.154701  0.000000 )  
               b(3) = (  0.000000 -0.000000  0.875657 )  


     PseudoPot. # 1 for Li read from file:
     ./PSEUDO/Li_ONCV_PBE_sr.upf
     MD5 check sum: 50ff420e78310ffa21704f3361e624a4
     Pseudo is Norm-conserving, Zval =  3.0
     Generated using ONCVPSP code by D. R. Hamann
     Using radial grid of 1944 points,  4 beta functions with: 
                l(1) =   0
                l(2) =   0
                l(3) =   1
                l(4) =   1

     PseudoPot. # 2 for B  read from file:
     ./PSEUDO/B_ONCV_PBE_sr.upf
     MD5 check sum: 12e13f68e8dc593c0a1d43390bab284b
     Pseudo is Norm-conserving + core correction, Zval =  3.0
     Generated using ONCVPSP code by D. R. Hamann
     Using radial grid of 1534 points,  4 beta functions with: 
                l(1) =   0
                l(2) =   0
                l(3) =   1
                l(4) =   1

     atomic species   valence    mass     pseudopotential
     Li                3.00     6.94000     Li( 1.00)
     B                 3.00    10.81000     B ( 1.00)

      4 Sym. Ops. (no inversion) found



   Cartesian axes

     site n.     atom                  positions (alat units)
         1        Li     tau(   1) = (   0.0000000   0.0000000   0.0000000  )
         2        B      tau(   2) = (   0.0000000   0.5767729   0.5710000  )
         3        B      tau(   3) = (   0.4995000   0.2883865   0.5710000  )

     number of k points=    52 (tetrahedron method)
                       cart. coord. in units 2pi/alat
        k(    1) = (   0.0000000   0.0000000   0.0000000), wk =   0.0092593
        k(    2) = (   0.0000000   0.0000000   0.1459428), wk =   0.0185185
        k(    3) = (   0.0000000   0.0000000   0.2918856), wk =   0.0185185
        k(    4) = (   0.0000000   0.0000000  -0.4378284), wk =   0.0092593
        k(    5) = (   0.0000000   0.1924501   0.0000000), wk =   0.0370370
        k(    6) = (   0.0000000   0.1924501   0.1459428), wk =   0.0740741
        k(    7) = (   0.0000000   0.1924501   0.2918856), wk =   0.0740741
        k(    8) = (   0.0000000   0.1924501  -0.4378284), wk =   0.0370370
        k(    9) = (   0.0000000   0.3849002   0.0000000), wk =   0.0370370
        k(   10) = (   0.0000000   0.3849002   0.1459428), wk =   0.0740741
        k(   11) = (   0.0000000   0.3849002   0.2918856), wk =   0.0740741
        k(   12) = (   0.0000000   0.3849002  -0.4378284), wk =   0.0370370
        k(   13) = (   0.0000000  -0.5773503   0.0000000), wk =   0.0185185
        k(   14) = (   0.0000000  -0.5773503   0.1459428), wk =   0.0370370
        k(   15) = (   0.0000000  -0.5773503   0.2918856), wk =   0.0370370
        k(   16) = (   0.0000000  -0.5773503  -0.4378284), wk =   0.0185185
        k(   17) = (   0.1666667   0.2886751   0.0000000), wk =   0.0185185
        k(   18) = (   0.1666667   0.2886751   0.1459428), wk =   0.0370370
        k(   19) = (   0.1666667   0.2886751   0.2918856), wk =   0.0370370
        k(   20) = (   0.1666667   0.2886751  -0.4378284), wk =   0.0185185
        k(   21) = (   0.1666667   0.4811252   0.0000000), wk =   0.0370370
        k(   22) = (   0.1666667   0.4811252   0.1459428), wk =   0.0740741
        k(   23) = (   0.1666667   0.4811252   0.2918856), wk =   0.0740741
        k(   24) = (   0.1666667   0.4811252  -0.4378284), wk =   0.0370370
        k(   25) = (   0.3333333   0.5773503   0.0000000), wk =   0.0185185
        k(   26) = (   0.3333333   0.5773503   0.1459428), wk =   0.0370370
        k(   27) = (   0.3333333   0.5773503   0.2918856), wk =   0.0370370
        k(   28) = (   0.3333333   0.5773503  -0.4378284), wk =   0.0185185
        k(   29) = (  -0.1666667   0.0962250   0.0000000), wk =   0.0185185
        k(   30) = (  -0.1666667   0.0962250   0.1459428), wk =   0.0370370
        k(   31) = (  -0.1666667   0.0962250   0.2918856), wk =   0.0370370
        k(   32) = (  -0.1666667   0.0962250  -0.4378284), wk =   0.0185185
        k(   33) = (  -0.3333333   0.1924501   0.0000000), wk =   0.0185185
        k(   34) = (  -0.3333333   0.1924501   0.1459428), wk =   0.0370370
        k(   35) = (  -0.3333333   0.1924501   0.2918856), wk =   0.0370370
        k(   36) = (  -0.3333333   0.1924501  -0.4378284), wk =   0.0185185
        k(   37) = (   0.5000000  -0.2886751   0.0000000), wk =   0.0092593
        k(   38) = (   0.5000000  -0.2886751   0.1459428), wk =   0.0185185
        k(   39) = (   0.5000000  -0.2886751   0.2918856), wk =   0.0185185
        k(   40) = (   0.5000000  -0.2886751  -0.4378284), wk =   0.0092593
        k(   41) = (  -0.1666667   0.2886751   0.0000000), wk =   0.0370370
        k(   42) = (  -0.1666667   0.2886751   0.1459428), wk =   0.0740741
        k(   43) = (  -0.1666667   0.2886751   0.2918856), wk =   0.0740741
        k(   44) = (  -0.1666667   0.2886751  -0.4378284), wk =   0.0370370
        k(   45) = (  -0.3333333   0.3849002   0.0000000), wk =   0.0370370
        k(   46) = (   0.5000000   0.0962250   0.0000000), wk =   0.0370370
        k(   47) = (  -0.3333333   0.3849002   0.1459428), wk =   0.0740741
        k(   48) = (   0.5000000   0.0962250   0.1459428), wk =   0.0740741
        k(   49) = (  -0.3333333   0.3849002   0.2918856), wk =   0.0740741
        k(   50) = (   0.5000000   0.0962250   0.2918856), wk =   0.0740741
        k(   51) = (  -0.3333333   0.3849002  -0.4378284), wk =   0.0370370
        k(   52) = (   0.5000000   0.0962250  -0.4378284), wk =   0.0370370

     Dense  grid:    26449 G-vectors     FFT dimensions: (  40,  40,  45)

     Estimated max dynamical RAM per process >      44.75 MB

     Initial potential from superposition of free atoms

     starting charge       8.9949, renormalised to       9.0000
     Starting wfcs are   10 randomized atomic wfcs

     total cpu time spent up to now is        2.4 secs

     Self-consistent Calculation

     iteration #  1     ecut=   100.00 Ry     beta= 0.70
     Davidson diagonalization with overlap
     ethr =  1.00E-02,  avg # of iterations =  4.3

     total cpu time spent up to now is        6.0 secs

     total energy              =     -26.12586459 Ry
     estimated scf accuracy    <       0.14933428 Ry

     iteration #  2     ecut=   100.00 Ry     beta= 0.70
     Davidson diagonalization with overlap
     ethr =  1.66E-03,  avg # of iterations =  2.8

     total cpu time spent up to now is        8.9 secs

     total energy              =     -26.16380883 Ry
     estimated scf accuracy    <       0.01133443 Ry

     iteration #  3     ecut=   100.00 Ry     beta= 0.70
     Davidson diagonalization with overlap
     ethr =  1.26E-04,  avg # of iterations =  3.9

     total cpu time spent up to now is       12.5 secs

     total energy              =     -26.16504499 Ry
     estimated scf accuracy    <       0.00014202 Ry

     iteration #  4     ecut=   100.00 Ry     beta= 0.70
     Davidson diagonalization with overlap
     ethr =  1.58E-06,  avg # of iterations =  6.5

     total cpu time spent up to now is       15.6 secs

     total energy              =     -26.16505140 Ry
     estimated scf accuracy    <       0.00001154 Ry

     iteration #  5     ecut=   100.00 Ry     beta= 0.70
     Davidson diagonalization with overlap
     ethr =  1.28E-07,  avg # of iterations =  1.8

     total cpu time spent up to now is       18.0 secs

     End of self-consistent calculation

          k = 0.0000 0.0000 0.0000 (  3285 PWs)   bands (ev):

   -40.1929  -6.0183   2.9750   5.8904   5.9142   9.9124  11.9028  11.9290
    14.1446

          k = 0.0000 0.0000 0.1459 (  3315 PWs)   bands (ev):

   -40.1925  -5.8917   2.0779   5.9439   5.9678  11.4746  12.1003  12.1272
    14.1206

          k = 0.0000 0.0000 0.2919 (  3297 PWs)   bands (ev):

   -40.1916  -5.6002   0.7123   6.0543   6.0786  12.5746  12.6039  14.0712
    14.7749

          k = 0.0000 0.0000-0.4378 (  3334 PWs)   bands (ev):

   -40.1911  -5.4279   0.1218   6.1115   6.1359  12.8743  12.9054  14.0457
    15.4510

          k = 0.0000 0.1925 0.0000 (  3292 PWs)   bands (ev):

   -40.1897  -5.5935   3.4909   4.0032   4.9926   9.8718  12.3145  13.7193
    14.1783

          k = 0.0000 0.1925 0.1459 (  3307 PWs)   bands (ev):

   -40.1893  -5.4631   2.5339   4.1157   5.0668  11.2400  12.5858  13.3591
    13.8830

          k = 0.0000 0.1925 0.2919 (  3309 PWs)   bands (ev):

   -40.1884  -5.1623   1.1284   4.3171   5.2224  12.2175  12.3639  14.3142
    15.0368

          k = 0.0000 0.1925-0.4378 (  3294 PWs)   bands (ev):

   -40.1880  -4.9837   0.5245   4.4247   5.3044  11.8524  12.4962  14.6622
    16.5247

          k = 0.0000 0.3849 0.0000 (  3316 PWs)   bands (ev):

   -40.1833  -4.3358   0.8044   3.8086   4.9768  10.2505  11.1937  12.0138
    15.8495

          k = 0.0000 0.3849 0.1459 (  3314 PWs)   bands (ev):

   -40.1829  -4.1940   0.9056   3.8979   3.9213  10.0839  11.2431  12.9610
    16.6151

          k = 0.0000 0.3849 0.2919 (  3299 PWs)   bands (ev):

   -40.1821  -3.8647   1.1435   2.3936   4.0880   8.7829  11.7145  15.4642
    15.7016

          k = 0.0000 0.3849-0.4378 (  3298 PWs)   bands (ev):

   -40.1817  -3.6673   1.3500   1.6649   4.1896   8.2607  11.7645  14.9072
    16.9282

          k = 0.0000-0.5774 0.0000 (  3314 PWs)   bands (ev):

   -40.1801  -2.7419  -1.5297   3.3595   6.5815   8.9087  10.8347  11.4404
    15.4173

          k = 0.0000-0.5774 0.1459 (  3306 PWs)   bands (ev):

   -40.1797  -2.5507  -1.4608   3.4527   5.2930   7.9541  11.2586  13.2165
    16.3994

          k = 0.0000-0.5774 0.2919 (  3294 PWs)   bands (ev):

   -40.1789  -2.0808  -1.3130   3.5089   3.6519   6.7605  11.4592  14.9855
    16.3500

          k = 0.0000-0.5774-0.4378 (  3296 PWs)   bands (ev):

   -40.1785  -1.7719  -1.2332   2.7167   3.7588   6.2921  11.4697  14.3469
    16.9709

          k = 0.1667 0.2887 0.0000 (  3307 PWs)   bands (ev):

   -40.1849  -4.7501   2.1506   3.2376   4.4978  10.4192  12.2413  13.8077
    13.9217

          k = 0.1667 0.2887 0.1459 (  3304 PWs)   bands (ev):

   -40.1845  -4.6127   2.2786   3.0966   3.7069  11.1825  11.8862  13.8697
    14.2909

          k = 0.1667 0.2887 0.2919 (  3299 PWs)   bands (ev):

   -40.1836  -4.2939   1.9196   2.5666   3.5493   9.7885  13.3434  14.6594
    14.7827

          k = 0.1667 0.2887-0.4378 (  3302 PWs)   bands (ev):

   -40.1832  -4.1033   1.3136   2.7316   3.5926   9.2102  13.4180  14.3864
    15.0612

          k = 0.1667 0.4811 0.0000 (  3318 PWs)   bands (ev):

   -40.1801  -3.1318  -0.4575   2.0890   6.3204   9.6560  11.3636  12.9117
    15.1334

          k = 0.1667 0.4811 0.1459 (  3308 PWs)   bands (ev):

   -40.1797  -2.9758  -0.3365   2.1555   5.1476   8.5345  12.7957  13.6092
    14.6850

          k = 0.1667 0.4811 0.2919 (  3304 PWs)   bands (ev):

   -40.1789  -2.6114  -0.0527   2.3225   3.4815   7.0334  13.4221  13.6276
    16.3729

          k = 0.1667 0.4811-0.4378 (  3300 PWs)   bands (ev):

   -40.1785  -2.3915   0.1285   2.4592   2.7116   6.4015  13.2548  13.4761
    17.6643

          k = 0.3333 0.5774 0.0000 (  3291 PWs)   bands (ev):

   -40.1784  -1.4808  -1.4748   0.5027   8.1015   8.1124  12.5839  12.5908
    13.8166

          k = 0.3333 0.5774 0.1459 (  3288 PWs)   bands (ev):

   -40.1781  -1.3053  -1.2992   0.5056   6.8370   6.8466  13.3854  14.2137
    14.2226

          k = 0.3333 0.5774 0.2919 (  3297 PWs)   bands (ev):

   -40.1773  -0.8843  -0.8782   0.5110   5.1216   5.1303  12.7357  16.6639
    16.6811

          k = 0.3333 0.5774-0.4378 (  3300 PWs)   bands (ev):

   -40.1769  -0.6189  -0.6127   0.5136   4.3807   4.3891  12.4739  16.5918
    17.5198

          k =-0.1667 0.0962 0.0000 (  3292 PWs)   bands (ev):

   -40.1897  -5.5935   3.4912   3.9928   5.0048   9.8739  12.3212  13.7062
    14.1752

          k =-0.1667 0.0962 0.1459 (  3307 PWs)   bands (ev):

   -40.1893  -5.4632   2.5342   4.1052   5.0791  11.2441  12.5896  13.3565
    13.8692

          k =-0.1667 0.0962 0.2919 (  3309 PWs)   bands (ev):

   -40.1884  -5.1624   1.1287   4.3063   5.2352  12.2178  12.3684  14.2986
    15.0376

          k =-0.1667 0.0962-0.4378 (  3294 PWs)   bands (ev):

   -40.1880  -4.9838   0.5250   4.4136   5.3174  11.8480  12.5060  14.6438
    16.5274

          k =-0.3333 0.1925 0.0000 (  3316 PWs)   bands (ev):

   -40.1833  -4.3357   0.7987   3.8167   4.9786  10.2526  11.1868  12.0167
    15.8408

          k =-0.3333 0.1925 0.1459 (  3314 PWs)   bands (ev):

   -40.1829  -4.1940   0.9000   3.9061   3.9231  10.0776  11.2450  12.9638
    16.6146

          k =-0.3333 0.1925 0.2919 (  3299 PWs)   bands (ev):

   -40.1821  -3.8649   1.1383   2.3954   4.0967   8.7757  11.7175  15.4639
    15.7049

          k =-0.3333 0.1925-0.4378 (  3298 PWs)   bands (ev):

   -40.1817  -3.6677   1.3446   1.6673   4.1985   8.2533  11.7677  14.9063
    16.9372

          k = 0.5000-0.2887 0.0000 (  3314 PWs)   bands (ev):

   -40.1801  -2.7386  -1.5373   3.3664   6.5901   8.8947  10.8366  11.4433
    15.4083

          k = 0.5000-0.2887 0.1459 (  3306 PWs)   bands (ev):

   -40.1797  -2.5475  -1.4684   3.4599   5.3004   7.9419  11.2599  13.2208
    16.3885

          k = 0.5000-0.2887 0.2919 (  3294 PWs)   bands (ev):

   -40.1789  -2.0776  -1.3205   3.5155   3.6594   6.7488  11.4611  14.9851
    16.3559

          k = 0.5000-0.2887-0.4378 (  3296 PWs)   bands (ev):

   -40.1785  -1.7688  -1.2406   2.7231   3.7666   6.2804  11.4717  14.3461
    16.9801

          k =-0.1667 0.2887 0.0000 (  3307 PWs)   bands (ev):

   -40.1849  -4.7501   2.1414   3.2474   4.4988  10.4252  12.2357  13.8267
    13.9014

          k =-0.1667 0.2887 0.1459 (  3304 PWs)   bands (ev):

   -40.1845  -4.6128   2.2693   3.1023   3.7127  11.1764  11.8945  13.8856
    14.2681

          k =-0.1667 0.2887 0.2919 (  3299 PWs)   bands (ev):

   -40.1837  -4.2941   1.9208   2.5570   3.5602   9.7826  13.3665  14.6605
    14.7571

          k =-0.1667 0.2887-0.4378 (  3302 PWs)   bands (ev):

   -40.1832  -4.1036   1.3149   2.7217   3.6038   9.2046  13.4410  14.3888
    15.0336

          k =-0.3333 0.3849 0.0000 (  3318 PWs)   bands (ev):

   -40.1801  -3.1310  -0.4638   2.0957   6.3251   9.6457  11.3695  12.9104
    15.1298

          k = 0.5000 0.0962 0.0000 (  3318 PWs)   bands (ev):

   -40.1801  -3.1316  -0.4590   2.0905   6.3220   9.6524  11.3694  12.9046
    15.1365

          k =-0.3333 0.3849 0.1459 (  3308 PWs)   bands (ev):

   -40.1797  -2.9752  -0.3426   2.1621   5.1525   8.5248  12.8033  13.6088
    14.6896

          k = 0.5000 0.0962 0.1459 (  3308 PWs)   bands (ev):

   -40.1797  -2.9757  -0.3379   2.1568   5.1495   8.5309  12.8036  13.6012
    14.6879

          k =-0.3333 0.3849 0.2919 (  3304 PWs)   bands (ev):

   -40.1789  -2.6114  -0.0582   2.3290   3.4866   7.0242  13.4285  13.6303
    16.3784

          k = 0.5000 0.0962 0.2919 (  3304 PWs)   bands (ev):

   -40.1789  -2.6116  -0.0537   2.3234   3.4836   7.0301  13.4253  13.6286
    16.3738

          k =-0.3333 0.3849-0.4378 (  3300 PWs)   bands (ev):

   -40.1785  -2.3919   0.1235   2.4662   2.7164   6.3925  13.2566  13.4833
    17.6531

          k = 0.5000 0.0962-0.4378 (  3300 PWs)   bands (ev):

   -40.1785  -2.3918   0.1279   2.4604   2.7132   6.3985  13.2556  13.4799
    17.6585

     the Fermi energy is     4.5942 ev

!    total energy              =     -26.16506707 Ry
     estimated scf accuracy    <       0.00000027 Ry

     The total energy is the sum of the following terms:
     one-electron contribution =      -3.48366177 Ry
     hartree contribution      =       3.87356276 Ry
     xc contribution           =      -8.11132406 Ry
     ewald contribution        =     -18.44364401 Ry

     convergence has been achieved in   5 iterations

     Forces acting on atoms (cartesian axes, Ry/au):

     atom    1 type  1   force =    -0.00007387   -0.00012795    0.00000000
     atom    2 type  2   force =    -0.00097167    0.00064630    0.00000000
     atom    3 type  2   force =     0.00104555   -0.00051834    0.00000000

     Total force =     0.001657     Total SCF correction =     0.000019


     Computing stress (Cartesian axis) and pressure

          total   stress  (Ry/bohr**3)                   (kbar)     P=     -104.24
  -0.00093520   0.00004037   0.00000000         -137.57        5.94        0.00
   0.00004037  -0.00088858   0.00000000            5.94     -130.72        0.00
   0.00000000   0.00000000  -0.00030203            0.00        0.00      -44.43


     Writing all to output data dir ./tmp/LiB2.save/ :
     XML data file, charge density, pseudopotentials, collected wavefunctions

     init_run     :      2.24s CPU      2.38s WALL (       1 calls)
     electrons    :     16.01s CPU     15.54s WALL (       1 calls)
     forces       :      0.49s CPU      0.52s WALL (       1 calls)
     stress       :      1.59s CPU      1.66s WALL (       1 calls)

     Called by init_run:
     wfcinit      :      1.27s CPU      1.34s WALL (       1 calls)
     potinit      :      0.13s CPU      0.13s WALL (       1 calls)
     hinit0       :      0.83s CPU      0.88s WALL (       1 calls)

     Called by electrons:
     c_bands      :     14.21s CPU     13.63s WALL (       5 calls)
     sum_band     :      1.64s CPU      1.73s WALL (       5 calls)
     v_of_rho     :      0.17s CPU      0.18s WALL (       6 calls)
     mix_rho      :      0.01s CPU      0.02s WALL (       5 calls)

     Called by c_bands:
     init_us_2    :      0.45s CPU      0.47s WALL (     676 calls)
     init_us_2:cp :      0.45s CPU      0.47s WALL (     676 calls)
     cegterg      :     13.64s CPU     13.04s WALL (     260 calls)

     Called by *egterg:
     cdiaghg      :      0.14s CPU      0.15s WALL (    1269 calls)
     h_psi        :     12.18s CPU     11.52s WALL (    1321 calls)
     g_psi        :      0.06s CPU      0.06s WALL (    1009 calls)

     Called by h_psi:
     h_psi:calbec :      1.10s CPU      1.14s WALL (    1321 calls)
     vloc_psi     :     10.12s CPU      9.36s WALL (    1321 calls)
     add_vuspsi   :      0.89s CPU      0.93s WALL (    1321 calls)

     General routines
     calbec       :      1.51s CPU      1.57s WALL (    1581 calls)
     fft          :      0.57s CPU      0.61s WALL (      84 calls)
     ffts         :      0.00s CPU      0.00s WALL (       5 calls)
     fftw         :      9.63s CPU      8.87s WALL (   16610 calls)


     PWSCF        :     20.41s CPU     20.25s WALL


   This run was terminated on:  19:28:53  14Dec2024            

=------------------------------------------------------------------------------=
   JOB DONE.
=------------------------------------------------------------------------------=
