
     Program PWSCF v.7.3 starts on 14Dec2024 at 21:58:33 

     This program is part of the open-source Quantum ESPRESSO suite
     for quantum simulation of materials; please cite
         "P. Giannozzi et al., J. Phys.:Condens. Matter 21 395502 (2009);
         "P. Giannozzi et al., J. Phys.:Condens. Matter 29 465901 (2017);
         "P. Giannozzi et al., J. Chem. Phys. 152 154105 (2020);
          URL http://www.quantum-espresso.org", 
     in publications or presentations arising from this work. More details at
     http://www.quantum-espresso.org/quote

     Serial version
     5119 MiB available memory on the printing compute node when the environment starts

     Waiting for input...
     Reading input from standard input

     Current dimensions of program PWSCF are:
     Max number of different atomic species (ntypx) = 10
     Max number of k-points (npk) =  40000
     Max angular momentum in pseudopotentials (lmaxx) =  4
     Message from routine iosys:
     BEWARE:  force calculation with tetrahedra (not recommanded)
     Message from routine iosys:
     BEWARE: stress calculation with tetrahedra (not recommanded)


     G-vector sticks info
     --------------------
     sticks:   dense  smooth     PW     G-vecs:    dense   smooth      PW
     Sum         745     745    223                18961    18961    3051

     Using Slab Decomposition



     bravais-lattice index     =            4
     lattice parameter (alat)  =       5.8260  a.u.
     unit-cell volume          =     195.5727 (a.u.)^3
     number of atoms/cell      =            3
     number of atomic types    =            2
     number of electrons       =         9.00
     number of Kohn-Sham states=            9
     kinetic-energy cutoff     =      80.0000  Ry
     charge density cutoff     =     320.0000  Ry
     scf convergence threshold =      1.0E-06
     mixing beta               =       0.7000
     number of iterations used =            8  plain     mixing
     Exchange-correlation= PBE
                           (   1   4   3   4   0   0   0)

     celldm(1)=   5.826000  celldm(2)=   0.000000  celldm(3)=   1.142000
     celldm(4)=   0.000000  celldm(5)=   0.000000  celldm(6)=   0.000000

     crystal axes: (cart. coord. in units of alat)
               a(1) = (   1.000000   0.000000   0.000000 )  
               a(2) = (  -0.500000   0.866025   0.000000 )  
               a(3) = (   0.000000   0.000000   1.142000 )  

     reciprocal axes: (cart. coord. in units 2 pi/alat)
               b(1) = (  1.000000  0.577350 -0.000000 )  
               b(2) = (  0.000000  1.154701  0.000000 )  
               b(3) = (  0.000000 -0.000000  0.875657 )  


     PseudoPot. # 1 for Li read from file:
     ./PSEUDO/Li_ONCV_PBE_sr.upf
     MD5 check sum: 50ff420e78310ffa21704f3361e624a4
     Pseudo is Norm-conserving, Zval =  3.0
     Generated using ONCVPSP code by D. R. Hamann
     Using radial grid of 1944 points,  4 beta functions with: 
                l(1) =   0
                l(2) =   0
                l(3) =   1
                l(4) =   1

     PseudoPot. # 2 for B  read from file:
     ./PSEUDO/B_ONCV_PBE_sr.upf
     MD5 check sum: 12e13f68e8dc593c0a1d43390bab284b
     Pseudo is Norm-conserving + core correction, Zval =  3.0
     Generated using ONCVPSP code by D. R. Hamann
     Using radial grid of 1534 points,  4 beta functions with: 
                l(1) =   0
                l(2) =   0
                l(3) =   1
                l(4) =   1

     atomic species   valence    mass     pseudopotential
     Li                3.00     6.94000     Li( 1.00)
     B                 3.00    10.81000     B ( 1.00)

      4 Sym. Ops. (no inversion) found



   Cartesian axes

     site n.     atom                  positions (alat units)
         1        Li     tau(   1) = (   0.0000000   0.0000000   0.0000000  )
         2        B      tau(   2) = (   0.0000000   0.5767729   0.5710000  )
         3        B      tau(   3) = (   0.4995000   0.2883865   0.5710000  )

     number of k points=   105 (tetrahedron method)

     Number of k-points >= 100: set verbosity='high' to print them.

     Dense  grid:    18961 G-vectors     FFT dimensions: (  36,  36,  40)

     Estimated max dynamical RAM per process >      49.42 MB

     Initial potential from superposition of free atoms

     starting charge       8.9949, renormalised to       9.0000
     Starting wfcs are   10 randomized atomic wfcs

     total cpu time spent up to now is        1.0 secs

     Self-consistent Calculation

     iteration #  1     ecut=    80.00 Ry     beta= 0.70
     Davidson diagonalization with overlap
     ethr =  1.00E-02,  avg # of iterations =  4.4

     total cpu time spent up to now is        4.9 secs

     total energy              =     -26.12581849 Ry
     estimated scf accuracy    <       0.14716762 Ry

     iteration #  2     ecut=    80.00 Ry     beta= 0.70
     Davidson diagonalization with overlap
     ethr =  1.64E-03,  avg # of iterations =  2.6

     total cpu time spent up to now is        9.2 secs

     total energy              =     -26.16296932 Ry
     estimated scf accuracy    <       0.01148522 Ry

     iteration #  3     ecut=    80.00 Ry     beta= 0.70
     Davidson diagonalization with overlap
     ethr =  1.28E-04,  avg # of iterations =  3.9

     total cpu time spent up to now is       13.5 secs

     total energy              =     -26.16440350 Ry
     estimated scf accuracy    <       0.00014652 Ry

     iteration #  4     ecut=    80.00 Ry     beta= 0.70
     Davidson diagonalization with overlap
     c_bands:  1 eigenvalues not converged
     c_bands:  1 eigenvalues not converged
     c_bands:  1 eigenvalues not converged
     c_bands:  1 eigenvalues not converged
     c_bands:  1 eigenvalues not converged
     c_bands:  1 eigenvalues not converged
     ethr =  1.63E-06,  avg # of iterations =  7.7

     total cpu time spent up to now is       18.2 secs

     total energy              =     -26.16441804 Ry
     estimated scf accuracy    <       0.00001579 Ry

     iteration #  5     ecut=    80.00 Ry     beta= 0.70
     Davidson diagonalization with overlap
     ethr =  1.75E-07,  avg # of iterations =  1.9

     total cpu time spent up to now is       21.0 secs

     End of self-consistent calculation

     Number of k-points >= 100: set verbosity='high' to print the bands.

     the Fermi energy is     4.5805 ev

!    total energy              =     -26.16443246 Ry
     estimated scf accuracy    <       0.00000031 Ry

     The total energy is the sum of the following terms:
     one-electron contribution =      -3.48028089 Ry
     hartree contribution      =       3.86920023 Ry
     xc contribution           =      -8.10970780 Ry
     ewald contribution        =     -18.44364401 Ry

     convergence has been achieved in   5 iterations

     Forces acting on atoms (cartesian axes, Ry/au):

     atom    1 type  1   force =    -0.00007303   -0.00012649    0.00000000
     atom    2 type  2   force =    -0.00020711    0.00020390    0.00000000
     atom    3 type  2   force =     0.00028014   -0.00007741    0.00000000

     Total force =     0.000436     Total SCF correction =     0.000008


     Computing stress (Cartesian axis) and pressure

          total   stress  (Ry/bohr**3)                   (kbar)     P=     -106.49
  -0.00094719  -0.00000535   0.00000000         -139.34       -0.79        0.00
  -0.00000535  -0.00095337   0.00000000           -0.79     -140.24        0.00
   0.00000000   0.00000000  -0.00027107            0.00        0.00      -39.88


     Writing all to output data dir ./tmp/LiB2.save/ :
     XML data file, charge density, pseudopotentials, collected wavefunctions

     init_run     :      1.77s CPU      0.90s WALL (       1 calls)
     electrons    :     19.20s CPU     20.01s WALL (       1 calls)
     forces       :      0.50s CPU      0.55s WALL (       1 calls)
     stress       :      2.32s CPU      2.40s WALL (       1 calls)

     Called by init_run:
     wfcinit      :      1.26s CPU      0.36s WALL (       1 calls)
     potinit      :      0.09s CPU      0.09s WALL (       1 calls)
     hinit0       :      0.41s CPU      0.42s WALL (       1 calls)

     Called by electrons:
     c_bands      :     16.66s CPU     17.36s WALL (       5 calls)
     sum_band     :      2.42s CPU      2.53s WALL (       5 calls)
     v_of_rho     :      0.12s CPU      0.13s WALL (       6 calls)
     mix_rho      :      0.01s CPU      0.01s WALL (       5 calls)

     Called by c_bands:
     init_us_2    :      0.62s CPU      0.65s WALL (    1365 calls)
     init_us_2:cp :      0.62s CPU      0.65s WALL (    1365 calls)
     cegterg      :     15.90s CPU     16.55s WALL (     525 calls)

     Called by *egterg:
     cdiaghg      :      0.27s CPU      0.29s WALL (    2675 calls)
     h_psi        :     13.45s CPU     14.03s WALL (    2780 calls)
     g_psi        :      0.08s CPU      0.08s WALL (    2150 calls)

     Called by h_psi:
     h_psi:calbec :      1.32s CPU      1.38s WALL (    2780 calls)
     vloc_psi     :     10.92s CPU     11.39s WALL (    2780 calls)
     add_vuspsi   :      1.10s CPU      1.15s WALL (    2780 calls)

     General routines
     calbec       :      1.76s CPU      1.84s WALL (    3305 calls)
     fft          :      0.30s CPU      0.32s WALL (      84 calls)
     ffts         :      0.00s CPU      0.00s WALL (       5 calls)
     fftw         :     10.68s CPU     11.16s WALL (   33771 calls)


     PWSCF        :     23.89s CPU     24.03s WALL


   This run was terminated on:  21:58:57  14Dec2024            

=------------------------------------------------------------------------------=
   JOB DONE.
=------------------------------------------------------------------------------=
