 CRYSTAL
 PRIMVEC
    3.082986431    0.000000000    0.000000000
   -1.541493215    2.669944569    0.000000000
    0.000000000    0.000000000    3.520770504
 PRIMCOORD
           3           1
Li        0.000000000    0.000000000    0.000000000
          0.000000000    1.778183083    1.760385252
          1.539951722    0.889091541    1.760385252
BEGIN_BLOCK_DATAGRID_3D
3D_PWSCF
DATAGRID_3D_UNKNOWN
          32          32          32
  0.000000  0.000000  0.000000
  3.082986  0.000000  0.000000
 -1.541493  2.669945  0.000000
  0.000000  0.000000  3.520771
  0.279701E+01  0.241441E+01  0.156222E+01  0.775491E+00  0.312736E+00  0.114809E+00
  0.451688E-01  0.217570E-01  0.133632E-01  0.102957E-01  0.936404E-02  0.925815E-02
  0.941496E-02  0.962108E-02  0.980093E-02  0.992126E-02  0.996305E-02  0.991947E-02
  0.979745E-02  0.961610E-02  0.940877E-02  0.925110E-02  0.935656E-02  0.102883E-01
  0.133565E-01  0.217514E-01  0.451652E-01  0.114809E+00  0.312740E+00  0.775501E+00
  0.156224E+01  0.241442E+01  0.241441E+01  0.241440E+01  0.180425E+01  0.102179E+01
  0.456035E+00  0.174697E+00  0.663281E-01  0.291869E-01  0.161528E-01  0.113071E-01
  0.963777E-02  0.925525E-02  0.933146E-02  0.952922E-02  0.972758E-02  0.988004E-02
  0.996218E-02  0.996126E-02  0.987730E-02  0.972317E-02  0.952339E-02  0.932454E-02
  0.924765E-02  0.962996E-02  0.112996E-01  0.161463E-01  0.291820E-01  0.663256E-01
  0.174698E+00  0.456042E+00  0.102180E+01  0.180426E+01  0.156222E+01  0.180425E+01
  0.156222E+01  0.102178E+01  0.519298E+00  0.218897E+00  0.862057E-01  0.369541E-01
  0.192373E-01  0.125340E-01  0.100491E-01  0.932468E-02  0.928324E-02  0.945540E-02
  0.966302E-02  0.984082E-02  0.995841E-02  0.999888E-02  0.995652E-02  0.983713E-02
  0.965772E-02  0.944879E-02  0.927568E-02  0.931662E-02  0.100410E-01  0.125266E-01
  0.192311E-01  0.369497E-01  0.862040E-01  0.218899E+00  0.519305E+00  0.102179E+01
  0.775491E+00  0.102179E+01  0.102178E+01  0.775485E+00  0.456033E+00  0.218897E+00
  0.945879E-01  0.421452E-01  0.217576E-01  0.136844E-01  0.105048E-01  0.944472E-02
  0.926822E-02  0.940120E-02  0.960941E-02  0.980596E-02  0.995317E-02  0.100308E-01
  0.100298E-01  0.995031E-02  0.980134E-02  0.960327E-02  0.939387E-02  0.926011E-02
  0.943629E-02  0.104966E-01  0.136771E-01  0.217516E-01  0.421411E-01  0.945863E-01
  0.218898E+00  0.456038E+00  0.312736E+00  0.456035E+00  0.519298E+00  0.456033E+00
  0.312734E+00  0.174697E+00  0.862065E-01  0.421459E-01  0.227451E-01  0.143922E-01
  0.108660E-01  0.957063E-02  0.927552E-02  0.936511E-02  0.956715E-02  0.977623E-02
  0.994744E-02  0.100568E-01  0.100934E-01  0.100548E-01  0.994359E-02  0.977070E-02
  0.956022E-02  0.935712E-02  0.926690E-02  0.956187E-02  0.108577E-01  0.143848E-01
  0.227392E-01  0.421417E-01  0.862045E-01  0.174697E+00  0.114809E+00  0.174697E+00
  0.218897E+00  0.218897E+00  0.174697E+00  0.114810E+00  0.663300E-01  0.369561E-01
  0.217593E-01  0.143931E-01  0.110046E-01  0.965120E-02  0.928950E-02  0.934390E-02
  0.953604E-02  0.975146E-02  0.994091E-02  0.100767E-01  0.101454E-01  0.101444E-01
  0.100737E-01  0.993609E-02  0.974505E-02  0.952835E-02  0.933529E-02  0.928042E-02
  0.964214E-02  0.109961E-01  0.143857E-01  0.217532E-01  0.369517E-01  0.663273E-01
  0.451688E-01  0.663281E-01  0.862057E-01  0.945879E-01  0.862065E-01  0.663300E-01
  0.451719E-01  0.291903E-01  0.192406E-01  0.136872E-01  0.108681E-01  0.965226E-02
  0.929665E-02  0.933462E-02  0.951673E-02  0.973249E-02  0.993332E-02  0.100900E-01
  0.101855E-01  0.102163E-01  0.101835E-01  0.100860E-01  0.992757E-02  0.972524E-02
  0.950832E-02  0.932544E-02  0.928714E-02  0.964291E-02  0.108594E-01  0.136796E-01
  0.192344E-01  0.291856E-01  0.217570E-01  0.291869E-01  0.369541E-01  0.421452E-01
  0.421459E-01  0.369561E-01  0.291903E-01  0.217618E-01  0.161576E-01  0.125385E-01
  0.105088E-01  0.957375E-02  0.929163E-02  0.933567E-02  0.951069E-02  0.972209E-02
  0.992659E-02  0.100971E-01  0.102142E-01  0.102712E-01  0.102702E-01  0.102112E-01
  0.100921E-01  0.991994E-02  0.971406E-02  0.950163E-02  0.932598E-02  0.928174E-02
  0.956413E-02  0.104999E-01  0.125308E-01  0.161512E-01  0.133632E-01  0.161528E-01
  0.192373E-01  0.217576E-01  0.227451E-01  0.217593E-01  0.192406E-01  0.161576E-01
  0.133696E-01  0.113132E-01  0.100548E-01  0.944971E-02  0.927962E-02  0.934697E-02
  0.951871E-02  0.972302E-02  0.992428E-02  0.100999E-01  0.102317E-01  0.103099E-01
  0.103345E-01  0.103078E-01  0.102276E-01  0.100940E-01  0.991679E-02  0.971428E-02
  0.950907E-02  0.933684E-02  0.926942E-02  0.943991E-02  0.100458E-01  0.113055E-01
  0.102957E-01  0.113071E-01  0.125340E-01  0.136844E-01  0.143922E-01  0.143931E-01
  0.136872E-01  0.125385E-01  0.113132E-01  0.103034E-01  0.964503E-02  0.933134E-02
  0.927408E-02  0.937000E-02  0.953987E-02  0.973522E-02  0.992826E-02  0.101006E-01
  0.102379E-01  0.103307E-01  0.103759E-01  0.103749E-01  0.103275E-01  0.102329E-01
  0.100938E-01  0.992002E-02  0.972586E-02  0.952976E-02  0.935954E-02  0.926370E-02
  0.932148E-02  0.963612E-02  0.936404E-02  0.963777E-02  0.100491E-01  0.105048E-01
  0.108660E-01  0.110046E-01  0.108681E-01  0.105088E-01  0.100548E-01  0.964503E-02
  0.937267E-02  0.926338E-02  0.929064E-02  0.940769E-02  0.957262E-02  0.975582E-02
  0.993656E-02  0.100992E-01  0.102329E-01  0.103311E-01  0.103907E-01  0.104101E-01
  0.103886E-01  0.103270E-01  0.102270E-01  0.100917E-01  0.992768E-02  0.974596E-02
  0.956217E-02  0.939706E-02  0.928025E-02  0.925367E-02  0.925815E-02  0.925525E-02
  0.932468E-02  0.944472E-02  0.957063E-02  0.965120E-02  0.965226E-02  0.957375E-02
  0.944971E-02  0.933134E-02  0.926338E-02  0.926747E-02  0.934016E-02  0.946328E-02
  0.961630E-02  0.978202E-02  0.994553E-02  0.100935E-01  0.102166E-01  0.103112E-01
  0.103766E-01  0.104102E-01  0.104092E-01  0.103735E-01  0.103062E-01  0.102098E-01
  0.100853E-01  0.993616E-02  0.977183E-02  0.960570E-02  0.945267E-02  0.932999E-02
  0.941496E-02  0.933146E-02  0.928324E-02  0.926822E-02  0.927552E-02  0.928950E-02
  0.929665E-02  0.929163E-02  0.927962E-02  0.927408E-02  0.929064E-02  0.934016E-02
  0.942466E-02  0.953822E-02  0.967111E-02  0.981298E-02  0.995327E-02  0.100813E-01
  0.101889E-01  0.102735E-01  0.103358E-01  0.103754E-01  0.103887E-01  0.103734E-01
  0.103318E-01  0.102677E-01  0.101816E-01  0.100726E-01  0.994360E-02  0.980268E-02
  0.966059E-02  0.952790E-02  0.962108E-02  0.952922E-02  0.945540E-02  0.940120E-02
  0.936511E-02  0.934390E-02  0.933462E-02  0.933567E-02  0.934697E-02  0.937000E-02
  0.940769E-02  0.946328E-02  0.953822E-02  0.963087E-02  0.973658E-02  0.984882E-02
  0.996002E-02  0.100624E-01  0.101497E-01  0.102193E-01  0.102720E-01  0.103086E-01
  0.103277E-01  0.103267E-01  0.103057E-01  0.102673E-01  0.102129E-01  0.101419E-01
  0.100534E-01  0.995029E-02  0.983867E-02  0.972640E-02  0.980093E-02  0.972758E-02
  0.966302E-02  0.960941E-02  0.956715E-02  0.953604E-02  0.951673E-02  0.951069E-02
  0.951871E-02  0.953987E-02  0.957262E-02  0.961630E-02  0.967111E-02  0.973658E-02
  0.981049E-02  0.988873E-02  0.996603E-02  0.100372E-01  0.100985E-01  0.101481E-01
  0.101859E-01  0.102124E-01  0.102278E-01  0.102324E-01  0.102260E-01  0.102087E-01
  0.101806E-01  0.101413E-01  0.100904E-01  0.100282E-01  0.995650E-02  0.987899E-02
  0.992126E-02  0.988004E-02  0.984082E-02  0.980596E-02  0.977623E-02  0.975146E-02
  0.973249E-02  0.972209E-02  0.972302E-02  0.973522E-02  0.975582E-02  0.978202E-02
  0.981298E-02  0.984882E-02  0.988873E-02  0.993030E-02  0.997028E-02  0.100058E-01
  0.100355E-01  0.100591E-01  0.100766E-01  0.100876E-01  0.100925E-01  0.100934E-01
  0.100925E-01  0.100899E-01  0.100834E-01  0.100709E-01  0.100521E-01  0.100275E-01
  0.999714E-02  0.996124E-02  0.996305E-02  0.996218E-02  0.995841E-02  0.995317E-02
  0.994744E-02  0.994091E-02  0.993332E-02  0.992659E-02  0.992428E-02  0.992826E-02
  0.993656E-02  0.994553E-02  0.995327E-02  0.996002E-02  0.996603E-02  0.997028E-02
  0.997131E-02  0.996849E-02  0.996253E-02  0.995495E-02  0.994682E-02  0.993794E-02
  0.992811E-02  0.991930E-02  0.991518E-02  0.991771E-02  0.992498E-02  0.993337E-02
  0.994099E-02  0.994808E-02  0.995489E-02  0.996038E-02  0.991947E-02  0.996126E-02
  0.999888E-02  0.100308E-01  0.100568E-01  0.100767E-01  0.100900E-01  0.100971E-01
  0.100999E-01  0.101006E-01  0.100992E-01  0.100935E-01  0.100813E-01  0.100624E-01
  0.100372E-01  0.100058E-01  0.996849E-02  0.992673E-02  0.988347E-02  0.984201E-02
  0.980481E-02  0.977274E-02  0.974571E-02  0.972461E-02  0.971228E-02  0.971156E-02
  0.972250E-02  0.974227E-02  0.976809E-02  0.979914E-02  0.983554E-02  0.987647E-02
  0.979745E-02  0.987730E-02  0.995652E-02  0.100298E-01  0.100934E-01  0.101454E-01
  0.101855E-01  0.102142E-01  0.102317E-01  0.102379E-01  0.102329E-01  0.102166E-01
  0.101889E-01  0.101497E-01  0.100985E-01  0.100355E-01  0.996253E-02  0.988347E-02
  0.980354E-02  0.972811E-02  0.966133E-02  0.960547E-02  0.956100E-02  0.952777E-02
  0.950647E-02  0.949867E-02  0.950524E-02  0.952535E-02  0.955749E-02  0.960101E-02
  0.965611E-02  0.972234E-02  0.961610E-02  0.972317E-02  0.983713E-02  0.995031E-02
  0.100548E-01  0.101444E-01  0.102163E-01  0.102712E-01  0.103099E-01  0.103307E-01
  0.103311E-01  0.103112E-01  0.102735E-01  0.102193E-01  0.101481E-01  0.100591E-01
  0.995495E-02  0.984201E-02  0.972811E-02  0.962091E-02  0.952702E-02  0.945108E-02
  0.939478E-02  0.935665E-02  0.933350E-02  0.932242E-02  0.932191E-02  0.933198E-02
  0.935418E-02  0.939148E-02  0.944710E-02  0.952253E-02  0.940877E-02  0.952339E-02
  0.965772E-02  0.980134E-02  0.994359E-02  0.100737E-01  0.101835E-01  0.102702E-01
  0.103345E-01  0.103759E-01  0.103907E-01  0.103766E-01  0.103358E-01  0.102720E-01
  0.101859E-01  0.100766E-01  0.994682E-02  0.980481E-02  0.966133E-02  0.952702E-02
  0.941227E-02  0.932686E-02  0.927671E-02  0.925980E-02  0.926527E-02  0.927752E-02
  0.928309E-02  0.927672E-02  0.926370E-02  0.925753E-02  0.927389E-02  0.932362E-02
  0.925110E-02  0.932454E-02  0.944879E-02  0.960327E-02  0.977070E-02  0.993609E-02
  0.100860E-01  0.102112E-01  0.103078E-01  0.103749E-01  0.104101E-01  0.104102E-01
  0.103754E-01  0.103086E-01  0.102124E-01  0.100876E-01  0.993794E-02  0.977274E-02
  0.960547E-02  0.945108E-02  0.932686E-02  0.925336E-02  0.924876E-02  0.931650E-02
  0.943492E-02  0.955927E-02  0.963835E-02  0.963806E-02  0.955841E-02  0.943355E-02
  0.931471E-02  0.924668E-02  0.935656E-02  0.924765E-02  0.927568E-02  0.939387E-02
  0.956022E-02  0.974505E-02  0.992757E-02  0.100921E-01  0.102276E-01  0.103275E-01
  0.103886E-01  0.104092E-01  0.103887E-01  0.103277E-01  0.102278E-01  0.100925E-01
  0.992811E-02  0.974571E-02  0.956100E-02  0.939478E-02  0.927671E-02  0.924876E-02
  0.935770E-02  0.963002E-02  0.100400E-01  0.104944E-01  0.108544E-01  0.109917E-01
  0.108540E-01  0.104938E-01  0.100390E-01  0.962894E-02  0.102883E-01  0.962996E-02
  0.931662E-02  0.926011E-02  0.935712E-02  0.952835E-02  0.972524E-02  0.991994E-02
  0.100940E-01  0.102329E-01  0.103270E-01  0.103735E-01  0.103734E-01  0.103267E-01
  0.102324E-01  0.100934E-01  0.991930E-02  0.972461E-02  0.952777E-02  0.935665E-02
  0.925980E-02  0.931650E-02  0.963002E-02  0.102885E-01  0.112989E-01  0.125249E-01
  0.136744E-01  0.143812E-01  0.143811E-01  0.136742E-01  0.125245E-01  0.112986E-01
  0.133565E-01  0.112996E-01  0.100410E-01  0.943629E-02  0.926690E-02  0.933529E-02
  0.950832E-02  0.971406E-02  0.991679E-02  0.100938E-01  0.102270E-01  0.103062E-01
  0.103318E-01  0.103057E-01  0.102260E-01  0.100925E-01  0.991518E-02  0.971228E-02
  0.950647E-02  0.933350E-02  0.926527E-02  0.943492E-02  0.100400E-01  0.112989E-01
  0.133561E-01  0.161451E-01  0.192292E-01  0.217489E-01  0.227357E-01  0.217489E-01
  0.192292E-01  0.161453E-01  0.217514E-01  0.161463E-01  0.125266E-01  0.104966E-01
  0.956187E-02  0.928042E-02  0.932544E-02  0.950163E-02  0.971428E-02  0.992002E-02
  0.100917E-01  0.102098E-01  0.102677E-01  0.102673E-01  0.102087E-01  0.100899E-01
  0.991771E-02  0.971156E-02  0.949867E-02  0.932242E-02  0.927752E-02  0.955927E-02
  0.104944E-01  0.125249E-01  0.161451E-01  0.217508E-01  0.291809E-01  0.369482E-01
  0.421391E-01  0.421390E-01  0.369482E-01  0.291811E-01  0.451652E-01  0.291820E-01
  0.192311E-01  0.136771E-01  0.108577E-01  0.964214E-02  0.928714E-02  0.932598E-02
  0.950907E-02  0.972586E-02  0.992768E-02  0.100853E-01  0.101816E-01  0.102129E-01
  0.101806E-01  0.100834E-01  0.992498E-02  0.972250E-02  0.950524E-02  0.932191E-02
  0.928309E-02  0.963835E-02  0.108544E-01  0.136744E-01  0.192292E-01  0.291809E-01
  0.451648E-01  0.663253E-01  0.862037E-01  0.945859E-01  0.862035E-01  0.663251E-01
  0.114809E+00  0.663256E-01  0.369497E-01  0.217516E-01  0.143848E-01  0.109961E-01
  0.964291E-02  0.928174E-02  0.933684E-02  0.952976E-02  0.974596E-02  0.993616E-02
  0.100726E-01  0.101419E-01  0.101413E-01  0.100709E-01  0.993337E-02  0.974227E-02
  0.952535E-02  0.933198E-02  0.927672E-02  0.963806E-02  0.109917E-01  0.143812E-01
  0.217489E-01  0.369482E-01  0.663253E-01  0.114809E+00  0.174700E+00  0.218901E+00
  0.218901E+00  0.174699E+00  0.312740E+00  0.174698E+00  0.862040E-01  0.421411E-01
  0.227392E-01  0.143857E-01  0.108594E-01  0.956413E-02  0.926942E-02  0.935954E-02
  0.956217E-02  0.977183E-02  0.994360E-02  0.100534E-01  0.100904E-01  0.100521E-01
  0.994099E-02  0.976809E-02  0.955749E-02  0.935418E-02  0.926370E-02  0.955841E-02
  0.108540E-01  0.143811E-01  0.227357E-01  0.421391E-01  0.862037E-01  0.174700E+00
  0.312743E+00  0.456047E+00  0.519312E+00  0.456045E+00  0.775501E+00  0.456042E+00
  0.218899E+00  0.945863E-01  0.421417E-01  0.217532E-01  0.136796E-01  0.104999E-01
  0.943991E-02  0.926370E-02  0.939706E-02  0.960570E-02  0.980268E-02  0.995029E-02
  0.100282E-01  0.100275E-01  0.994808E-02  0.979914E-02  0.960101E-02  0.939148E-02
  0.925753E-02  0.943355E-02  0.104938E-01  0.136742E-01  0.217489E-01  0.421390E-01
  0.945859E-01  0.218901E+00  0.456047E+00  0.775507E+00  0.102181E+01  0.102181E+01
  0.156224E+01  0.102180E+01  0.519305E+00  0.218898E+00  0.862045E-01  0.369517E-01
  0.192344E-01  0.125308E-01  0.100458E-01  0.932148E-02  0.928025E-02  0.945267E-02
  0.966059E-02  0.983867E-02  0.995650E-02  0.999714E-02  0.995489E-02  0.983554E-02
  0.965611E-02  0.944710E-02  0.927389E-02  0.931471E-02  0.100390E-01  0.125245E-01
  0.192292E-01  0.369482E-01  0.862035E-01  0.218901E+00  0.519312E+00  0.102181E+01
  0.156225E+01  0.180427E+01  0.241442E+01  0.180426E+01  0.102179E+01  0.456038E+00
  0.174697E+00  0.663273E-01  0.291856E-01  0.161512E-01  0.113055E-01  0.963612E-02
  0.925367E-02  0.932999E-02  0.952790E-02  0.972640E-02  0.987899E-02  0.996124E-02
  0.996038E-02  0.987647E-02  0.972234E-02  0.952253E-02  0.932362E-02  0.924668E-02
  0.962894E-02  0.112986E-01  0.161453E-01  0.291811E-01  0.663251E-01  0.174699E+00
  0.456045E+00  0.102181E+01  0.180427E+01  0.241442E+01  0.230895E+01  0.199559E+01
  0.129695E+01  0.650139E+00  0.267150E+00  0.101129E+00  0.413798E-01  0.207066E-01
  0.131294E-01  0.103570E-01  0.954574E-02  0.949278E-02  0.967746E-02  0.990181E-02
  0.100941E-01  0.102215E-01  0.102655E-01  0.102196E-01  0.100904E-01  0.989654E-02
  0.967088E-02  0.948527E-02  0.953774E-02  0.103490E-01  0.131221E-01  0.207005E-01
  0.413756E-01  0.101128E+00  0.267153E+00  0.650147E+00  0.129696E+01  0.199560E+01
  0.199559E+01  0.199558E+01  0.149550E+01  0.852962E+00  0.386176E+00  0.151703E+00
  0.597147E-01  0.273318E-01  0.156582E-01  0.112668E-01  0.977632E-02  0.946953E-02
  0.958190E-02  0.980143E-02  0.100148E-01  0.101769E-01  0.102636E-01  0.102626E-01
  0.101740E-01  0.100102E-01  0.979525E-02  0.957455E-02  0.946142E-02  0.976794E-02
  0.112587E-01  0.156510E-01  0.273261E-01  0.597113E-01  0.151703E+00  0.386181E+00
  0.852971E+00  0.149551E+01  0.129695E+01  0.149550E+01  0.129695E+01  0.852960E+00
  0.438568E+00  0.188796E+00  0.767703E-01  0.341889E-01  0.184443E-01  0.123788E-01
  0.101380E-01  0.951558E-02  0.952018E-02  0.971784E-02  0.994287E-02  0.101326E-01
  0.102570E-01  0.102995E-01  0.102550E-01  0.101287E-01  0.993726E-02  0.971083E-02
  0.951215E-02  0.950698E-02  0.101293E-01  0.123707E-01  0.184374E-01  0.341837E-01
  0.767677E-01  0.188797E+00  0.438573E+00  0.852968E+00  0.650139E+00  0.852962E+00
  0.852960E+00  0.650135E+00  0.386175E+00  0.188796E+00  0.839279E-01  0.387408E-01
  0.207107E-01  0.134243E-01  0.105464E-01  0.961308E-02  0.949247E-02  0.965437E-02
  0.988177E-02  0.100923E-01  0.102485E-01  0.103303E-01  0.103293E-01  0.102454E-01
  0.100874E-01  0.987527E-02  0.964660E-02  0.948384E-02  0.960407E-02  0.105375E-01
  0.134162E-01  0.207039E-01  0.387359E-01  0.839254E-01  0.188796E+00  0.386178E+00
  0.267150E+00  0.386176E+00  0.438568E+00  0.386175E+00  0.267149E+00  0.151704E+00
  0.767713E-01  0.387415E-01  0.215963E-01  0.140679E-01  0.108732E-01  0.972165E-02
  0.949037E-02  0.961154E-02  0.983371E-02  0.100580E-01  0.102401E-01  0.103558E-01
  0.103944E-01  0.103538E-01  0.102361E-01  0.100521E-01  0.982635E-02  0.960306E-02
  0.948120E-02  0.971228E-02  0.108642E-01  0.140598E-01  0.215896E-01  0.387366E-01
  0.767685E-01  0.151703E+00  0.101129E+00  0.151703E+00  0.188796E+00  0.188796E+00
  0.151704E+00  0.101131E+00  0.597169E-01  0.341911E-01  0.207125E-01  0.140689E-01
  0.109992E-01  0.979301E-02  0.949922E-02  0.958702E-02  0.979966E-02  0.100307E-01
  0.102324E-01  0.103765E-01  0.104492E-01  0.104482E-01  0.103733E-01  0.102273E-01
  0.100239E-01  0.979149E-02  0.957788E-02  0.948954E-02  0.978329E-02  0.109900E-01
  0.140607E-01  0.207057E-01  0.341860E-01  0.597136E-01  0.413798E-01  0.597147E-01
  0.767703E-01  0.839279E-01  0.767713E-01  0.597169E-01  0.413835E-01  0.273356E-01
  0.184479E-01  0.134273E-01  0.108754E-01  0.979412E-02  0.950488E-02  0.957686E-02
  0.977980E-02  0.100113E-01  0.102250E-01  0.103913E-01  0.104927E-01  0.105254E-01
  0.104906E-01  0.103870E-01  0.102188E-01  0.100036E-01  0.977086E-02  0.956709E-02
  0.949474E-02  0.978409E-02  0.108659E-01  0.134189E-01  0.184409E-01  0.273302E-01
  0.207066E-01  0.273318E-01  0.341889E-01  0.387408E-01  0.387415E-01  0.341911E-01
  0.273356E-01  0.207120E-01  0.156635E-01  0.123837E-01  0.105506E-01  0.972496E-02
  0.950146E-02  0.957796E-02  0.977394E-02  0.100015E-01  0.102191E-01  0.103999E-01
  0.105242E-01  0.105848E-01  0.105837E-01  0.105209E-01  0.103946E-01  0.102120E-01
  0.999290E-02  0.976429E-02  0.956763E-02  0.949090E-02  0.971463E-02  0.105410E-01
  0.123752E-01  0.156565E-01  0.131294E-01  0.156582E-01  0.184443E-01  0.207107E-01
  0.215963E-01  0.207125E-01  0.184479E-01  0.156635E-01  0.131364E-01  0.112735E-01
  0.101441E-01  0.961846E-02  0.949475E-02  0.959028E-02  0.978191E-02  0.100024E-01
  0.102173E-01  0.104038E-01  0.105434E-01  0.106263E-01  0.106525E-01  0.106240E-01
  0.105390E-01  0.103974E-01  0.102093E-01  0.999311E-02  0.977162E-02  0.957947E-02
  0.948385E-02  0.960792E-02  0.101344E-01  0.112650E-01  0.103570E-01  0.112668E-01
  0.123788E-01  0.134243E-01  0.140679E-01  0.140689E-01  0.134273E-01  0.123837E-01
  0.112735E-01  0.103653E-01  0.978423E-02  0.952282E-02  0.949881E-02  0.961681E-02
  0.980376E-02  0.100143E-01  0.102209E-01  0.104046E-01  0.105502E-01  0.106482E-01
  0.106961E-01  0.106949E-01  0.106449E-01  0.105447E-01  0.103973E-01  0.102121E-01
  0.100042E-01  0.979296E-02  0.960563E-02  0.948770E-02  0.951221E-02  0.977457E-02
  0.954574E-02  0.977632E-02  0.101380E-01  0.105464E-01  0.108732E-01  0.109992E-01
  0.108754E-01  0.105506E-01  0.101441E-01  0.978423E-02  0.955511E-02  0.947837E-02
  0.952824E-02  0.966144E-02  0.983964E-02  0.100354E-01  0.102285E-01  0.104023E-01
  0.105447E-01  0.106487E-01  0.107114E-01  0.107317E-01  0.107092E-01  0.106443E-01
  0.105383E-01  0.103941E-01  0.102189E-01  0.100249E-01  0.982846E-02  0.965006E-02
  0.951709E-02  0.946790E-02  0.949278E-02  0.946953E-02  0.951558E-02  0.961308E-02
  0.972165E-02  0.979301E-02  0.979412E-02  0.972496E-02  0.961846E-02  0.952282E-02
  0.947837E-02  0.950287E-02  0.959136E-02  0.972644E-02  0.988930E-02  0.100643E-01
  0.102374E-01  0.103951E-01  0.105268E-01  0.106278E-01  0.106968E-01  0.107319E-01
  0.107308E-01  0.106935E-01  0.106224E-01  0.105195E-01  0.103862E-01  0.102273E-01
  0.100534E-01  0.987795E-02  0.971507E-02  0.958042E-02  0.967746E-02  0.958190E-02
  0.952018E-02  0.949247E-02  0.949037E-02  0.949922E-02  0.950488E-02  0.950146E-02
  0.949475E-02  0.949881E-02  0.952824E-02  0.959136E-02  0.968795E-02  0.981121E-02
  0.995170E-02  0.101000E-01  0.102465E-01  0.103815E-01  0.104965E-01  0.105873E-01
  0.106539E-01  0.106956E-01  0.107093E-01  0.106934E-01  0.106496E-01  0.105811E-01
  0.104885E-01  0.103722E-01  0.102362E-01  0.100889E-01  0.994041E-02  0.980010E-02
  0.990181E-02  0.980143E-02  0.971784E-02  0.965437E-02  0.961154E-02  0.958702E-02
  0.957686E-02  0.957796E-02  0.959028E-02  0.961681E-02  0.966144E-02  0.972644E-02
  0.981121E-02  0.991240E-02  0.100246E-01  0.101414E-01  0.102560E-01  0.103620E-01
  0.104540E-01  0.105288E-01  0.105858E-01  0.106251E-01  0.106451E-01  0.106440E-01
  0.106219E-01  0.105807E-01  0.105219E-01  0.104455E-01  0.103524E-01  0.102455E-01
  0.101305E-01  0.100137E-01  0.100941E-01  0.100148E-01  0.994287E-02  0.988177E-02
  0.983371E-02  0.979966E-02  0.977980E-02  0.977394E-02  0.978191E-02  0.980376E-02
  0.983964E-02  0.988930E-02  0.995170E-02  0.100246E-01  0.101044E-01  0.101864E-01
  0.102653E-01  0.103373E-01  0.104000E-01  0.104523E-01  0.104933E-01  0.105224E-01
  0.105393E-01  0.105443E-01  0.105373E-01  0.105184E-01  0.104875E-01  0.104449E-01
  0.103914E-01  0.103277E-01  0.102551E-01  0.101759E-01  0.102215E-01  0.101769E-01
  0.101326E-01  0.100923E-01  0.100580E-01  0.100307E-01  0.100113E-01  0.100015E-01
  0.100024E-01  0.100143E-01  0.100354E-01  0.100643E-01  0.101000E-01  0.101414E-01
  0.101864E-01  0.102313E-01  0.102724E-01  0.103072E-01  0.103355E-01  0.103585E-01
  0.103765E-01  0.103888E-01  0.103951E-01  0.103969E-01  0.103959E-01  0.103923E-01
  0.103842E-01  0.103703E-01  0.103510E-01  0.103269E-01  0.102978E-01  0.102626E-01
  0.102655E-01  0.102636E-01  0.102570E-01  0.102485E-01  0.102401E-01  0.102324E-01
  0.102250E-01  0.102191E-01  0.102173E-01  0.102209E-01  0.102285E-01  0.102374E-01
  0.102465E-01  0.102560E-01  0.102653E-01  0.102724E-01  0.102745E-01  0.102705E-01
  0.102616E-01  0.102506E-01  0.102397E-01  0.102294E-01  0.102195E-01  0.102114E-01
  0.102077E-01  0.102097E-01  0.102161E-01  0.102244E-01  0.102334E-01  0.102432E-01
  0.102534E-01  0.102617E-01  0.102196E-01  0.102626E-01  0.102995E-01  0.103303E-01
  0.103558E-01  0.103765E-01  0.103913E-01  0.103999E-01  0.104038E-01  0.104046E-01
  0.104023E-01  0.103951E-01  0.103815E-01  0.103620E-01  0.103373E-01  0.103072E-01
  0.102705E-01  0.102276E-01  0.101808E-01  0.101342E-01  0.100913E-01  0.100545E-01
  0.100247E-01  0.100031E-01  0.999110E-02  0.999032E-02  0.100008E-01  0.100210E-01
  0.100494E-01  0.100852E-01  0.101272E-01  0.101732E-01  0.100904E-01  0.101740E-01
  0.102550E-01  0.103293E-01  0.103944E-01  0.104492E-01  0.104927E-01  0.105242E-01
  0.105434E-01  0.105502E-01  0.105447E-01  0.105268E-01  0.104965E-01  0.104540E-01
  0.104000E-01  0.103355E-01  0.102616E-01  0.101808E-01  0.100971E-01  0.100156E-01
  0.994134E-02  0.987782E-02  0.982735E-02  0.979099E-02  0.976901E-02  0.976125E-02
  0.976767E-02  0.978837E-02  0.982354E-02  0.987298E-02  0.993566E-02  0.100093E-01
  0.989654E-02  0.100102E-01  0.101287E-01  0.102454E-01  0.103538E-01  0.104482E-01
  0.105254E-01  0.105848E-01  0.106263E-01  0.106482E-01  0.106487E-01  0.106278E-01
  0.105873E-01  0.105288E-01  0.104523E-01  0.103585E-01  0.102506E-01  0.101342E-01
  0.100156E-01  0.990185E-02  0.979932E-02  0.971350E-02  0.964775E-02  0.960270E-02
  0.957607E-02  0.956398E-02  0.956342E-02  0.957441E-02  0.960001E-02  0.964415E-02
  0.970914E-02  0.979439E-02  0.967088E-02  0.979525E-02  0.993726E-02  0.100874E-01
  0.102361E-01  0.103733E-01  0.104906E-01  0.105837E-01  0.106525E-01  0.106961E-01
  0.107114E-01  0.106968E-01  0.106539E-01  0.105858E-01  0.104933E-01  0.103765E-01
  0.102397E-01  0.100913E-01  0.994134E-02  0.979932E-02  0.967479E-02  0.957722E-02
  0.951343E-02  0.948366E-02  0.947957E-02  0.948655E-02  0.949052E-02  0.948567E-02
  0.947784E-02  0.948118E-02  0.951033E-02  0.957364E-02  0.948527E-02  0.957455E-02
  0.971083E-02  0.987527E-02  0.100521E-01  0.102273E-01  0.103870E-01  0.105209E-01
  0.106240E-01  0.106949E-01  0.107317E-01  0.107319E-01  0.106956E-01  0.106251E-01
  0.105224E-01  0.103888E-01  0.102294E-01  0.100545E-01  0.987782E-02  0.971350E-02
  0.957722E-02  0.948784E-02  0.946278E-02  0.950700E-02  0.960272E-02  0.970957E-02
  0.977933E-02  0.977900E-02  0.970862E-02  0.960119E-02  0.950501E-02  0.946043E-02
  0.953774E-02  0.946142E-02  0.951215E-02  0.964660E-02  0.982635E-02  0.100239E-01
  0.102188E-01  0.103946E-01  0.105390E-01  0.106449E-01  0.107092E-01  0.107308E-01
  0.107093E-01  0.106451E-01  0.105393E-01  0.103951E-01  0.102195E-01  0.100247E-01
  0.982735E-02  0.964775E-02  0.951343E-02  0.946278E-02  0.953910E-02  0.976815E-02
  0.101283E-01  0.105353E-01  0.108607E-01  0.109854E-01  0.108603E-01  0.105345E-01
  0.101272E-01  0.976688E-02  0.103490E-01  0.976794E-02  0.950698E-02  0.948384E-02
  0.960306E-02  0.979149E-02  0.100036E-01  0.102120E-01  0.103974E-01  0.105447E-01
  0.106443E-01  0.106935E-01  0.106934E-01  0.106440E-01  0.105443E-01  0.103969E-01
  0.102114E-01  0.100031E-01  0.979099E-02  0.960270E-02  0.948366E-02  0.950700E-02
  0.976815E-02  0.103494E-01  0.112580E-01  0.123690E-01  0.134134E-01  0.140559E-01
  0.140558E-01  0.134131E-01  0.123685E-01  0.112576E-01  0.131221E-01  0.112587E-01
  0.101293E-01  0.960407E-02  0.948120E-02  0.957788E-02  0.977086E-02  0.999290E-02
  0.102093E-01  0.103973E-01  0.105383E-01  0.106224E-01  0.106496E-01  0.106219E-01
  0.105373E-01  0.103959E-01  0.102077E-01  0.999110E-02  0.976901E-02  0.957607E-02
  0.947957E-02  0.960272E-02  0.101283E-01  0.112580E-01  0.131217E-01  0.156498E-01
  0.184353E-01  0.207010E-01  0.215858E-01  0.207009E-01  0.184353E-01  0.156500E-01
  0.207005E-01  0.156510E-01  0.123707E-01  0.105375E-01  0.971228E-02  0.948954E-02
  0.956709E-02  0.976429E-02  0.999311E-02  0.102121E-01  0.103941E-01  0.105195E-01
  0.105811E-01  0.105807E-01  0.105184E-01  0.103923E-01  0.102097E-01  0.999032E-02
  0.976125E-02  0.956398E-02  0.948655E-02  0.970957E-02  0.105353E-01  0.123690E-01
  0.156498E-01  0.206998E-01  0.273249E-01  0.341819E-01  0.387335E-01  0.387335E-01
  0.341819E-01  0.273252E-01  0.413756E-01  0.273261E-01  0.184374E-01  0.134162E-01
  0.108642E-01  0.978329E-02  0.949474E-02  0.956763E-02  0.977162E-02  0.100042E-01
  0.102189E-01  0.103862E-01  0.104885E-01  0.105219E-01  0.104875E-01  0.103842E-01
  0.102161E-01  0.100008E-01  0.976767E-02  0.956342E-02  0.949052E-02  0.977933E-02
  0.108607E-01  0.134134E-01  0.184353E-01  0.273249E-01  0.413750E-01  0.597107E-01
  0.767669E-01  0.839244E-01  0.767668E-01  0.597107E-01  0.101128E+00  0.597113E-01
  0.341837E-01  0.207039E-01  0.140598E-01  0.109900E-01  0.978409E-02  0.949090E-02
  0.957947E-02  0.979296E-02  0.100249E-01  0.102273E-01  0.103722E-01  0.104455E-01
  0.104449E-01  0.103703E-01  0.102244E-01  0.100210E-01  0.978837E-02  0.957441E-02
  0.948567E-02  0.977900E-02  0.109854E-01  0.140559E-01  0.207010E-01  0.341819E-01
  0.597107E-01  0.101128E+00  0.151704E+00  0.188798E+00  0.188798E+00  0.151704E+00
  0.267153E+00  0.151703E+00  0.767677E-01  0.387359E-01  0.215896E-01  0.140607E-01
  0.108659E-01  0.971463E-02  0.948385E-02  0.960563E-02  0.982846E-02  0.100534E-01
  0.102362E-01  0.103524E-01  0.103914E-01  0.103510E-01  0.102334E-01  0.100494E-01
  0.982354E-02  0.960001E-02  0.947784E-02  0.970862E-02  0.108603E-01  0.140558E-01
  0.215858E-01  0.387335E-01  0.767669E-01  0.151704E+00  0.267155E+00  0.386185E+00
  0.438578E+00  0.386183E+00  0.650147E+00  0.386181E+00  0.188797E+00  0.839254E-01
  0.387366E-01  0.207057E-01  0.134189E-01  0.105410E-01  0.960792E-02  0.948770E-02
  0.965006E-02  0.987795E-02  0.100889E-01  0.102455E-01  0.103277E-01  0.103269E-01
  0.102432E-01  0.100852E-01  0.987298E-02  0.964415E-02  0.948118E-02  0.960119E-02
  0.105345E-01  0.134131E-01  0.207009E-01  0.387335E-01  0.839244E-01  0.188798E+00
  0.386185E+00  0.650152E+00  0.852979E+00  0.852977E+00  0.129696E+01  0.852971E+00
  0.438573E+00  0.188796E+00  0.767685E-01  0.341860E-01  0.184409E-01  0.123752E-01
  0.101344E-01  0.951221E-02  0.951709E-02  0.971507E-02  0.994041E-02  0.101305E-01
  0.102551E-01  0.102978E-01  0.102534E-01  0.101272E-01  0.993566E-02  0.970914E-02
  0.951033E-02  0.950501E-02  0.101272E-01  0.123685E-01  0.184353E-01  0.341819E-01
  0.767668E-01  0.188798E+00  0.438578E+00  0.852979E+00  0.129697E+01  0.149552E+01
  0.199560E+01  0.149551E+01  0.852968E+00  0.386178E+00  0.151703E+00  0.597136E-01
  0.273302E-01  0.156565E-01  0.112650E-01  0.977457E-02  0.946790E-02  0.958042E-02
  0.980010E-02  0.100137E-01  0.101759E-01  0.102626E-01  0.102617E-01  0.101732E-01
  0.100093E-01  0.979439E-02  0.957364E-02  0.946043E-02  0.976688E-02  0.112576E-01
  0.156500E-01  0.273252E-01  0.597107E-01  0.151704E+00  0.386183E+00  0.852977E+00
  0.149552E+01  0.199560E+01  0.131275E+01  0.113986E+01  0.752813E+00  0.390492E+00
  0.170768E+00  0.711411E-01  0.326674E-01  0.182148E-01  0.126246E-01  0.106083E-01
  0.101146E-01  0.102069E-01  0.104730E-01  0.107536E-01  0.109851E-01  0.111352E-01
  0.111863E-01  0.111329E-01  0.109807E-01  0.107474E-01  0.104653E-01  0.101980E-01
  0.101051E-01  0.105987E-01  0.126155E-01  0.182069E-01  0.326612E-01  0.711374E-01