
     Program POST-PROC v.7.3 starts on 14Dec2024 at 22: 8:21 

     This program is part of the open-source Quantum ESPRESSO suite
     for quantum simulation of materials; please cite
         "P. Giannozzi et al., J. Phys.:Condens. Matter 21 395502 (2009);
         "P. Giannozzi et al., J. Phys.:Condens. Matter 29 465901 (2017);
         "P. Giannozzi et al., J. Chem. Phys. 152 154105 (2020);
          URL http://www.quantum-espresso.org", 
     in publications or presentations arising from this work. More details at
     http://www.quantum-espresso.org/quote

     Serial version
     5094 MiB available memory on the printing compute node when the environment starts


     Reading xml data from directory:

     ./tmp/LiB2.save/

     IMPORTANT: XC functional enforced from input :
     Exchange-correlation= PBE
                           (   1   4   3   4   0   0   0)
     Any further DFT definition will be discarded
     Please, verify this is what you really want


     G-vector sticks info
     --------------------
     sticks:   dense  smooth     PW     G-vecs:    dense   smooth      PW
     Sum         745     745    223                18961    18961    3051

     Using Slab Decomposition


     Calling punch_plot, plot_num =   0
     Writing data to file  LiB2.rho.out
     Reading data from file  LiB2.rho.out

     Writing data to be plotted to file LiB2.rho.xsf

     Min, Max, Total, Abs charge:   0.009247  2.797014      9.0000    9.0000
     Plot Type: 3D                     Output format: XCrySDen     

     POST-PROC    :      1.30s CPU      1.36s WALL


   This run was terminated on:  22: 8:22  14Dec2024            

=------------------------------------------------------------------------------=
   JOB DONE.
=------------------------------------------------------------------------------=
.263680496E-01  3.533231873E-01  1.546041656E-01  6.736293805E-02
  3.253396609E-02  1.856494936E-02  1.269417168E-02  1.026505683E-02  9.413906089E-03
  9.255743322E-03  9.360487915E-03  9.539992280E-03  9.719037476E-03  9.864943740E-03
  9.959430605E-03  9.991610095E-03  9.957756657E-03  9.861656825E-03  9.714271600E-03
  9.533956890E-03  9.353452776E-03  9.248025366E-03  9.405874263E-03  1.025713961E-02
  1.268683793E-02  1.855866870E-02  3.252922324E-02  6.736036948E-02  1.546047073E-01
  3.533278595E-01  7.263769247E-01  1.256042814E+00  1.006089392E+00  1.256034850E+00
  1.256032145E+00  1.006082993E+00  6.529748917E-01  3.533226837E-01  1.684193671E-01
  7.716364012E-02  3.762879683E-02  2.104433936E-02  1.387966871E-02  1.078130566E-02
  9.586742373E-03  9.272140213E-03  9.318821196E-03  9.485374812E-03  9.671605213E-03
  9.835420377E-03  9.954998796E-03  1.001741928E-02  1.001656202E-02  9.952456827E-03
  9.831290382E-03  9.666059162E-03  9.478651803E-03  9.311210626E-03  9.263978542E-03
  9.578424203E-03  1.077328127E-02  1.387240629E-02  2.103828002E-02  3.762437998E-02
  7.716141611E-02  1.684200225E-01  3.533266530E-01  6.529814160E-01  4.776389381E-01
  6.529774793E-01  7.263680496E-01  6.529748917E-01  4.776355049E-01  2.909632120E-01
  1.546043584E-01  7.716404113E-02  3.961099346E-02  2.254327513E-02  1.476580670E-02
  1.123319841E-02  9.768798590E-03  9.310912414E-03  9.295799578E-03  9.443605351E-03
  9.631983478E-03  9.809387813E-03  9.950041534E-03  1.003893971E-02  1.006865664E-02
  1.003720159E-02  9.946628176E-03  9.804433305E-03  9.625692157E-03  9.436236827E-03
  9.287657842E-03  9.302352209E-03  9.760233672E-03  1.122508268E-02  1.475858223E-02
  2.253732781E-02  3.960667533E-02  7.716173038E-02  1.546043858E-01  2.909654785E-01
  2.008351580E-01  2.909642270E-01  3.533231873E-01  3.533226837E-01  2.909632120E-01
  2.008346932E-01  1.207876679E-01  6.736421949E-02  3.763000597E-02  2.254401190E-02
  1.509650303E-02  1.149885571E-02  9.907687068E-03  9.353286486E-03  9.286123202E-03
  9.413688957E-03  9.600115717E-03  9.786823081E-03  9.944675128E-03  1.005624567E-02
  1.011279793E-02  1.011190982E-02  1.005361267E-02  9.940395537E-03  9.781065324E-03
  9.593108584E-03  9.405707042E-03  9.277484493E-03  9.344360988E-03  9.898894138E-03
  1.149063141E-02  1.508924484E-02  2.253803855E-02  3.762556573E-02  6.736150303E-02
  1.207867140E-01  8.279483254E-02  1.207868975E-01  1.546041656E-01  1.684193671E-01
  1.546043584E-01  1.207876679E-01  8.279666313E-02  5.236909880E-02  3.253641241E-02
  2.104653400E-02  1.476746247E-02  1.149975401E-02  9.960199523E-03  9.380701585E-03
  9.283790711E-03  9.394511083E-03  9.576175579E-03  9.767682972E-03  9.938459135E-03
  1.006903554E-02  1.014859261E-02  1.017441809E-02  1.014679504E-02  1.006550481E-02
  9.933327723E-03  9.761147291E-03  9.568482599E-03  9.385948700E-03  9.274689561E-03
  9.371437893E-03  9.951181696E-03  1.149138637E-02  1.476009581E-02  2.104042789E-02
  3.253172725E-02  5.236589020E-02  3.762841743E-02  5.236675604E-02  6.736293805E-02
  7.716364012E-02  7.716404113E-02  6.736421949E-02  5.236909880E-02  3.763199907E-02
  2.621971346E-02  1.856856798E-02  1.388292086E-02  1.123584987E-02  9.909550135E-03
  9.381655485E-03  9.284217525E-03  9.385464309E-03  9.561180316E-03  9.753048378E-03
  9.931635325E-03  1.007700712E-02  1.017604414E-02  1.022453461E-02  1.022361910E-02
  1.017332939E-02  1.007259021E-02  9.925678224E-03  9.745768865E-03  9.552839937E-03
  9.376362775E-03  9.274692511E-03  9.372078068E-03  9.900308013E-03  1.122731593E-02
  1.387541016E-02  1.856229852E-02  2.621478994E-02  2.036364868E-02  2.621598458E-02
  3.253396609E-02  3.762879683E-02  3.961099346E-02  3.763000597E-02  3.253641241E-02
  2.621971346E-02  2.036870154E-02  1.582137794E-02  1.269893478E-02  1.078560323E-02
  9.772429365E-03  9.356092073E-03  9.285671608E-03  9.386387171E-03  9.556549043E-03
  9.745177155E-03  9.926046810E-03  1.008082189E-02  1.019534809E-02  1.026299155E-02
  1.028439508E-02  1.026114832E-02  1.019172474E-02  1.007554509E-02  9.919302067E-03
  9.737198695E-03  9.547610656E-03  9.376796916E-03  9.275767254E-03  9.346233649E-03
  9.762985390E-03  1.077692397E-02  1.269131047E-02  1.581499904E-02  1.336324708E-02
  1.581636700E-02  1.856494936E-02  2.104433936E-02  2.254327513E-02  2.254401190E-02
  2.104653400E-02  1.856856798E-02  1.582137794E-02  1.336961410E-02  1.150115244E-02
  1.027087350E-02  9.591994035E-03  9.315429016E-03  9.289775932E-03  9.397221681E-03
  9.562927148E-03  9.745999900E-03  9.924277918E-03  1.008225701E-02  1.020687428E-02
  1.028989875E-02  1.032995047E-02  1.032901793E-02  1.028713207E-02  1.020236611E-02
  1.007615912E-02  9.916794405E-03  9.737378589E-03  9.553451833E-03  9.387204939E-03
  9.279552501E-03  9.305350065E-03  9.582415930E-03  1.026212984E-02  1.149351145E-02
  1.049606932E-02  1.149496440E-02  1.269417168E-02  1.387966871E-02  1.476580670E-02
  1.509650303E-02  1.476746247E-02  1.388292086E-02  1.269893478E-02  1.150115244E-02
  1.050358042E-02  9.809101775E-03  9.420623140E-03  9.278197772E-03  9.301056342E-03
  9.418042424E-03  9.579566761E-03  9.755466981E-03  9.927537365E-03  1.008292251E-02
  1.021103545E-02  1.030419009E-02  1.035923690E-02  1.037668599E-02  1.035737177E-02
  1.030052062E-02  1.020568089E-02  1.007605559E-02  9.919377810E-03  9.746274516E-03
  9.569633092E-03  9.407682923E-03  9.290604594E-03  9.268001554E-03  9.411030327E-03
  9.800427620E-03  9.469092628E-03  9.801895987E-03  1.026505683E-02  1.078130566E-02
  1.123319841E-02  1.149885571E-02  1.149975401E-02  1.123584987E-02  1.078560323E-02
  1.027087350E-02  9.809101775E-03  9.477529956E-03  9.301242507E-03  9.263172462E-03
  9.325506796E-03  9.449428074E-03  9.604993375E-03  9.771572252E-03  9.934535993E-03
  1.008278371E-02  1.020800322E-02  1.030464915E-02  1.036968911E-02  1.040189105E-02
  1.040095475E-02  1.036691048E-02  1.030011697E-02  1.020185991E-02  1.007521978E-02
  9.925784903E-03  9.761904036E-03  9.594706262E-03  9.438841036E-03  9.314955893E-03
  9.253004560E-03  9.291794186E-03  9.246426925E-03  9.293222110E-03  9.413906089E-03
  9.586742373E-03  9.768798590E-03  9.907687068E-03  9.960199523E-03  9.909550135E-03
  9.772429365E-03  9.591994035E-03  9.420623140E-03  9.301242507E-03  9.255550704E-03
  9.282982813E-03  9.368427623E-03  9.492496693E-03  9.638182020E-03  9.792029652E-03
  9.942641961E-03  1.008017486E-02  1.019755714E-02  1.029126069E-02  1.035992046E-02
  1.040211232E-02  1.041588319E-02  1.040025863E-02  1.035627229E-02  1.028593165E-02
  1.019070906E-02  1.007201324E-02  9.933412072E-03  9.782010384E-03  9.627677799E-03
  9.481831661E-03  9.357941536E-03  9.273018667E-03  9.331411622E-03  9.274366494E-03
  9.255743322E-03  9.272140213E-03  9.310912414E-03  9.353286486E-03  9.380701585E-03
  9.381655485E-03  9.356092073E-03  9.315429016E-03  9.278197772E-03  9.263172462E-03
  9.282982813E-03  9.340982319E-03  9.432394028E-03  9.548231811E-03  9.678958402E-03
  9.815756380E-03  9.949998525E-03  1.007329082E-02  1.017924941E-02  1.026521254E-02
  1.033130738E-02  1.037735519E-02  1.040115833E-02  1.040024091E-02  1.037463224E-02
  1.032686382E-02  1.025918224E-02  1.017180966E-02  1.006465966E-02  9.940431716E-03
  9.805540923E-03  9.668404774E-03  9.537668737E-03  9.422161379E-03  9.506626464E-03
  9.423404508E-03  9.360487915E-03  9.318821196E-03  9.295799578E-03  9.286123202E-03
  9.283790711E-03  9.284217525E-03  9.285671608E-03  9.289775932E-03  9.301056342E-03
  9.325506796E-03  9.368427623E-03  9.432394028E-03  9.516405726E-03  9.616543153E-03
  9.727351567E-03  9.842782413E-03  9.956356689E-03  1.006145894E-02  1.015269015E-02
  1.022754629E-02  1.028639837E-02  1.033014299E-02  1.035780304E-02  1.036687608E-02
  1.035601954E-02  1.032663133E-02  1.028126399E-02  1.022093839E-02  1.014479856E-02
  1.005251338E-02  9.946623171E-03  9.832555022E-03  9.716944235E-03  9.606284099E-03
  9.686005751E-03  9.607411371E-03  9.539992280E-03  9.485374812E-03  9.443605351E-03
  9.413688957E-03  9.394511083E-03  9.385464309E-03  9.386387171E-03  9.397221681E-03
  9.418042424E-03  9.449428074E-03  9.492496693E-03  9.548231811E-03  9.616543153E-03
  9.695750842E-03  9.782683578E-03  9.873093885E-03  9.962133504E-03  1.004496663E-02
  1.011766871E-02  1.017813079E-02  1.022621747E-02  1.026272166E-02  1.028781968E-02
  1.030051449E-02  1.029965096E-02  1.028525523E-02  1.025853231E-02  1.022052379E-02
  1.017109412E-02  1.010949090E-02  1.003588949E-02  9.952431979E-03  9.863064785E-03
  9.772637282E-03  9.833650835E-03  9.773650927E-03  9.719037476E-03  9.671605213E-03
  9.631983478E-03  9.600115717E-03  9.576175579E-03  9.561180316E-03  9.556549043E-03
  9.562927148E-03  9.579566761E-03  9.604993375E-03  9.638182020E-03  9.678958402E-03
  9.727351567E-03  9.782683578E-03  9.843119483E-03  9.905768546E-03  9.967177932E-03
  1.002409043E-02  1.007416353E-02  1.011621477E-02  1.014991125E-02  1.017531440E-02
  1.019267756E-02  1.020243371E-02  1.020506282E-02  1.020079551E-02  1.018944831E-02
  1.017058564E-02  1.014381556E-02  1.010892500E-02  1.006589391E-02  1.001509299E-02
  9.957730630E-03  9.896162070E-03  9.930017981E-03  9.897076436E-03  9.864943740E-03
  9.835420377E-03  9.809387813E-03  9.786823081E-03  9.767682972E-03  9.753048378E-03
  9.745177155E-03  9.745999900E-03  9.755466981E-03  9.771572252E-03  9.792029652E-03
  9.815756380E-03  9.842782413E-03  9.873093885E-03  9.905768546E-03  9.938982793E-03
  9.970571817E-03  9.998730928E-03  1.002254885E-02  1.004197519E-02  1.005715116E-02
  1.006783786E-02  1.007378657E-02  1.007571091E-02  1.007544909E-02  1.007467784E-02
  1.007341848E-02  1.007003655E-02  1.006273468E-02  1.005083870E-02  1.003463739E-02
  1.001440930E-02  9.990044451E-03  9.961608991E-03  9.963049022E-03  9.962445722E-03
  9.959430605E-03  9.954998796E-03  9.950041534E-03  9.944675128E-03  9.938459135E-03
  9.931635325E-03  9.926046810E-03  9.924277918E-03  9.927537365E-03  9.934535993E-03
  9.942641961E-03  9.949998525E-03  9.956356689E-03  9.962133504E-03  9.967177932E-03
  9.970571817E-03  9.971308354E-03  9.968985047E-03  9.964052944E-03  9.957566847E-03
  9.950487866E-03  9.943002156E-03  9.934725278E-03  9.925942867E-03  9.918546242E-03
  9.915182505E-03  9.917127779E-03  9.923144364E-03  9.930624679E-03  9.937716275E-03
  9.944170771E-03  9.950409440E-03  9.956279751E-03  9.960842491E-03  9.928431841E-03
  9.961624746E-03  9.991610095E-03  1.001741928E-02  1.003893971E-02  1.005624567E-02
  1.006903554E-02  1.007700712E-02  1.008082189E-02  1.008225701E-02  1.008292251E-02
  1.008278371E-02  1.008017486E-02  1.007329082E-02  1.006145894E-02  1.004496663E-02
  1.002409043E-02  9.998730928E-03  9.968985047E-03  9.935812516E-03  9.901067555E-03
  9.866964793E-03  9.835372267E-03  9.807245101E-03  9.782622217E-03  9.761502449E-03
  9.745002802E-03  9.735431749E-03  9.734787816E-03  9.743088019E-03  9.758370203E-03
  9.778364580E-03  9.801990037E-03  9.829279396E-03  9.860223608E-03  9.893892854E-03
  9.830540104E-03  9.894642911E-03  9.957756657E-03  1.001656202E-02  1.006865664E-02
  1.011279793E-02  1.014859261E-02  1.017604414E-02  1.019534809E-02  1.020687428E-02
  1.021103545E-02  1.020800322E-02  1.019755714E-02  1.017924941E-02  1.015269015E-02
  1.011766871E-02  1.007416353E-02  1.002254885E-02  9.964052944E-03  9.901067555E-03
  9.836901043E-03  9.775057685E-03  9.718473940E-03  9.669016235E-03  9.627380275E-03
  9.593555015E-03  9.567743801E-03  9.551000251E-03  9.544801787E-03  9.549865623E-03
  9.565505581E-03  9.590281213E-03  9.623176205E-03  9.664016508E-03  9.712835936E-03
  9.768960324E-03  9.681502758E-03  9.769700772E-03  9.861656825E-03  9.952456827E-03
  1.003720159E-02  1.011190982E-02  1.017441809E-02  1.022453461E-02  1.026299155E-02
  1.028989875E-02  1.030419009E-02  1.030464915E-02  1.029126069E-02  1.026521254E-02
  1.022754629E-02  1.017813079E-02  1.011621477E-02  1.004197519E-02  9.957566847E-03
  9.866964793E-03  9.775057685E-03  9.686746238E-03  9.606324370E-03  9.536994732E-03
  9.480450234E-03  9.436787980E-03  9.405042726E-03  9.384125170E-03  9.373470558E-03
  9.372982313E-03  9.382673151E-03  9.402671055E-03  9.433579158E-03  9.476518964E-03
  9.532474652E-03  9.601362344E-03  9.500934738E-03  9.602116580E-03  9.714271600E-03
  9.831290382E-03  9.946628176E-03  1.005361267E-02  1.014679504E-02  1.022361910E-02
  1.028439508E-02  1.032995047E-02  1.035923690E-02  1.036968911E-02  1.035992046E-02
  1.033130738E-02  1.028639837E-02  1.022621747E-02  1.014991125E-02  1.005715116E-02
  9.950487866E-03  9.835372267E-03  9.718473940E-03  9.606324370E-03  9.505018330E-03
  9.420042916E-03  9.355330069E-03  9.311878990E-03  9.287118760E-03  9.275768788E-03
  9.271853490E-03  9.270836063E-03  9.271050844E-03  9.274186976E-03  9.284815937E-03
  9.308949796E-03  9.351890838E-03  9.416217199E-03  9.324791876E-03  9.417005888E-03
  9.533956890E-03  9.666059162E-03  9.804433305E-03  9.940395537E-03  1.006550481E-02
  1.017332939E-02  1.026114832E-02  1.032901793E-02  1.037668599E-02  1.040189105E-02
  1.040211232E-02  1.037735519E-02  1.033014299E-02  1.026272166E-02  1.017531440E-02
  1.006783786E-02  9.943002156E-03  9.807245101E-03  9.669016235E-03  9.536994732E-03
  9.420042916E-03  9.327731403E-03  9.269061445E-03  9.248806383E-03  9.263603966E-03
  9.300827294E-03  9.341713544E-03  9.367726385E-03  9.367412261E-03  9.340780587E-03
  9.299311712E-03  9.261578123E-03  9.246369937E-03  9.266321406E-03  9.239186034E-03
  9.267156725E-03  9.353452776E-03  9.478651803E-03  9.625692157E-03  9.781065324E-03
  9.933327723E-03  1.007259021E-02  1.019172474E-02  1.028713207E-02  1.035737177E-02
  1.040095475E-02  1.041588319E-02  1.040115833E-02  1.035780304E-02  1.028781968E-02
  1.019267756E-02  1.007378657E-02  9.934725278E-03  9.782622217E-03  9.627380275E-03
  9.480450234E-03  9.355330069E-03  9.269061445E-03  9.241051446E-03  9.286409241E-03
  9.405681649E-03  9.577152316E-03  9.757887732E-03  9.895498988E-03  9.946798272E-03
  9.895049328E-03  9.757009750E-03  9.575898228E-03  9.404133219E-03  9.284659224E-03
  9.461587883E-03  9.285541174E-03  9.248025366E-03  9.311210626E-03  9.436236827E-03
  9.593108584E-03  9.761147291E-03  9.925678224E-03  1.007554509E-02  1.020236611E-02
  1.030052062E-02  1.036691048E-02  1.040025863E-02  1.040024091E-02  1.036687608E-02
  1.030051449E-02  1.020243371E-02  1.007571091E-02  9.925942867E-03  9.761502449E-03
  9.593555015E-03  9.436787980E-03  9.311878990E-03  9.248806383E-03  9.286409241E-03
  9.462501055E-03  9.794124496E-03  1.025615674E-02  1.077132072E-02  1.122214671E-02
  1.148674045E-02  1.148659763E-02  1.122173046E-02  1.077067092E-02  1.025534094E-02
  9.793223293E-03  1.048871304E-02  9.794139744E-03  9.405874263E-03  9.263978542E-03
  9.287657842E-03  9.405707042E-03  9.568482599E-03  9.745768865E-03  9.919302067E-03
  1.007615912E-02  1.020568089E-02  1.030011697E-02  1.035627229E-02  1.037463224E-02
  1.035601954E-02  1.029965096E-02  1.020506282E-02  1.007544909E-02  9.918546242E-03
  9.745002802E-03  9.567743801E-03  9.405042726E-03  9.287118760E-03  9.263603966E-03
  9.405681649E-03  9.794124496E-03  1.048885054E-02  1.148689647E-02  1.268531325E-02
  1.387003464E-02  1.475535838E-02  1.508517641E-02  1.475521949E-02  1.386979235E-02
  1.268503194E-02  1.148665296E-02  1.335648951E-02  1.148758071E-02  1.025713961E-02
  9.578424203E-03  9.302352209E-03  9.277484493E-03  9.385948700E-03  9.552839937E-03
  9.737198695E-03  9.916794405E-03  1.007605559E-02  1.020185991E-02  1.028593165E-02
  1.032686382E-02  1.032663133E-02  1.028525523E-02  1.020079551E-02  1.007467784E-02
  9.915182505E-03  9.735431749E-03  9.551000251E-03  9.384125170E-03  9.275768788E-03
  9.300827294E-03  9.577152316E-03  1.025615674E-02  1.148689647E-02  1.335608599E-02
  1.580875303E-02  1.855692536E-02  2.103585837E-02  2.253420207E-02  2.253417851E-02
  2.103581773E-02  1.855694454E-02  1.580892492E-02  2.035795792E-02  1.580982630E-02
  1.268683793E-02  1.077328127E-02  9.760233672E-03  9.344360988E-03  9.274689561E-03
  9.376362775E-03  9.547610656E-03  9.737378589E-03  9.919377810E-03  1.007521978E-02
  1.019070906E-02  1.025918224E-02  1.028126399E-02  1.025853231E-02  1.018944831E-02
  1.007341848E-02  9.917127779E-03  9.734787816E-03  9.544801787E-03  9.373470558E-03
  9.271853490E-03  9.341713544E-03  9.757887732E-03  1.077132072E-02  1.268531325E-02
  1.580875303E-02  2.035731194E-02  2.620967832E-02  3.252769874E-02  3.762240475E-02
  3.960416175E-02  3.762238566E-02  3.252776245E-02  2.620997068E-02  3.762434053E-02
  2.621077513E-02  1.855866870E-02  1.387240629E-02  1.122508268E-02  9.898894138E-03
  9.371437893E-03  9.274692511E-03  9.376796916E-03  9.553451833E-03  9.746274516E-03
  9.925784903E-03  1.007201324E-02  1.017180966E-02  1.022093839E-02  1.022052379E-02
  1.017058564E-02  1.007003655E-02  9.923144364E-03  9.743088019E-03  9.549865623E-03
  9.372982313E-03  9.270836063E-03  9.367726385E-03  9.895498988E-03  1.122214671E-02
  1.387003464E-02  1.855692536E-02  2.620967832E-02  3.762384122E-02  5.236289598E-02
  6.735971757E-02  7.716062450E-02  7.716053955E-02  6.735957346E-02  5.236294850E-02
  8.279319332E-02  5.236349852E-02  3.252922324E-02  2.103828002E-02  1.475858223E-02
  1.149063141E-02  9.951181696E-03  9.372078068E-03  9.275767254E-03  9.387204939E-03
  9.569633092E-03  9.761904036E-03  9.933412072E-03  1.006465966E-02  1.014479856E-02
  1.017109412E-02  1.014381556E-02  1.006273468E-02  9.930624679E-03  9.758370203E-03
  9.565505581E-03  9.382673151E-03  9.271050844E-03  9.367412261E-03  9.946798272E-03
  1.148674045E-02  1.475535838E-02  2.103585837E-02  3.252769874E-02  5.236289598E-02
  8.279338251E-02  1.207872360E-01  1.546059237E-01  1.684214688E-01  1.546054119E-01
  1.207866210E-01  2.008372299E-01  1.207865614E-01  6.736036948E-02  3.762437998E-02
  2.253732781E-02  1.508924484E-02  1.149138637E-02  9.900308013E-03  9.346233649E-03
  9.279552501E-03  9.407682923E-03  9.594706262E-03  9.782010384E-03  9.940431716E-03
  1.005251338E-02  1.010949090E-02  1.010892500E-02  1.005083870E-02  9.937716275E-03
  9.778364580E-03  9.590281213E-03  9.402671055E-03  9.274186976E-03  9.340780587E-03
  9.895049328E-03  1.148659763E-02  1.508517641E-02  2.253420207E-02  3.762240475E-02
  6.735971757E-02  1.207872360E-01  2.008388338E-01  2.909711757E-01  3.533322335E-01
  3.533315323E-01  2.909695228E-01  4.776461072E-01  2.909681499E-01  1.546047073E-01
  7.716141611E-02  3.960667533E-02  2.253803855E-02  1.476009581E-02  1.122731593E-02
  9.762985390E-03  9.305350065E-03  9.290604594E-03  9.438841036E-03  9.627677799E-03
  9.805540923E-03  9.946623171E-03  1.003588949E-02  1.006589391E-02  1.003463739E-02
  9.944170771E-03  9.801990037E-03  9.623176205E-03  9.433579158E-03  9.284815937E-03
  9.299311712E-03  9.757009750E-03  1.122173046E-02  1.475521949E-02  2.253417851E-02
  3.960416175E-02  7.716062450E-02  1.546059237E-01  2.909711757E-01  4.776498381E-01
  6.529930236E-01  7.263855235E-01  6.529904167E-01  1.006101745E+00  6.529866145E-01
  3.533278595E-01  1.684200225E-01  7.716173038E-02  3.762556573E-02  2.104042789E-02
  1.387541016E-02  1.077692397E-02  9.582415930E-03  9.268001554E-03  9.314955893E-03
  9.481831661E-03  9.668404774E-03  9.832555022E-03  9.952431979E-03  1.001509299E-02
  1.001440930E-02  9.950409440E-03  9.829279396E-03  9.664016508E-03  9.476518964E-03
  9.308949796E-03  9.261578123E-03  9.575898228E-03  1.077067092E-02  1.386979235E-02
  2.103581773E-02  3.762238566E-02  7.716053955E-02  1.684214688E-01  3.533322335E-01
  6.529930236E-01  1.006107694E+00  1.256057895E+00  1.256055445E+00  1.762900358E+00
  1.256047972E+00  7.263769247E-01  3.533266530E-01  1.546043858E-01  6.736150303E-02
  3.253172725E-02  1.856229852E-02  1.269131047E-02  1.026212984E-02  9.411030327E-03
  9.253004560E-03  9.357941536E-03  9.537668737E-03  9.716944235E-03  9.863064785E-03
  9.957730630E-03  9.990044451E-03  9.956279751E-03  9.860223608E-03  9.712835936E-03
  9.532474652E-03  9.351890838E-03  9.246369937E-03  9.404133219E-03  1.025534094E-02
  1.268503194E-02  1.855694454E-02  3.252776245E-02  6.735957346E-02  1.546054119E-01
  3.533315323E-01  7.263855235E-01  1.256057895E+00  1.762907186E+00  1.976679714E+00
  2.489930685E+00  1.976668027E+00  1.256042814E+00  6.529814160E-01  2.909654785E-01
  1.207867140E-01  5.236589020E-02  2.621478994E-02  1.581499904E-02  1.149351145E-02
  9.800427620E-03  9.291794186E-03  9.273018667E-03  9.422161379E-03  9.606284099E-03
  9.772637282E-03  9.896162070E-03  9.961608991E-03  9.960842491E-03  9.893892854E-03
  9.768960324E-03  9.601362344E-03  9.416217199E-03  9.266321406E-03  9.284659224E-03
  9.793223293E-03  1.148665296E-02  1.580892492E-02  2.620997068E-02  5.236294850E-02
  1.207866210E-01  2.909695228E-01  6.529904167E-01  1.256055445E+00  1.976679714E+00
  2.489935514E+00  2.473533398E+00  2.203301308E+00  1.563239202E+00  8.961295078E-01
  4.289786270E-01  1.828954868E-01  7.691142607E-02  3.576177506E-02  1.977007889E-02
  1.320939626E-02  1.052016407E-02  9.572850277E-03  9.387701792E-03  9.492457241E-03
  9.680228505E-03  9.868585359E-03  1.002241701E-02  1.012231431E-02  1.015644981E-02
  1.012066551E-02  1.001918522E-02  9.863908373E-03  9.674313784E-03  9.485568560E-03
  9.380151123E-03  9.565003834E-03  1.051244559E-02  1.320226596E-02  1.976400578E-02
  3.575728204E-02  7.690926265E-02  1.828967827E-01  4.289845922E-01  8.961401876E-01
  1.563251751E+00  2.203310055E+00  2.203301308E+00  2.203296830E+00  1.751491555E+00
  1.116604337E+00  5.842023799E-01  2.632417736E-01  1.111750354E-01  4.926655830E-02
  2.521876524E-02  1.551344475E-02  1.145510002E-02  9.876106019E-03  9.419945042E-03
  9.427049421E-03  9.591211683E-03  9.785671280E-03  9.959402899E-03  1.008761206E-02
  1.015522958E-02  1.015437640E-02  1.008508471E-02  9.955303308E-03  9.780176300E-03
  9.584564450E-03  9.419544989E-03  9.411928675E-03  9.867981864E-03  1.144732515E-02
  1.550649670E-02  2.521312875E-02  4.926281895E-02  1.111740663E-01  2.632447461E-01
  5.842100971E-01  1.116615673E+00  1.751502282E+00  1.563239202E+00  1.751491555E+00
  1.563232716E+00  1.116602038E+00  6.490930335E-01  3.186836239E-01  1.415326223E-01
  6.292216243E-02  3.106767562E-02  1.808974745E-02  1.258159616E-02  1.030533916E-02
  9.523815029E-03  9.398925698E-03  9.521741416E-03  9.713148895E-03  9.900868888E-03
  1.005274694E-02  1.015060220E-02  1.018382291E-02  1.014886415E-02  1.004933673E-02
  9.895926327E-03  9.706886981E-03  9.514432104E-03  9.390889348E-03  9.515425771E-03
  1.029703108E-02  1.257384401E-02  1.808302661E-02  3.106246645E-02  6.291906190E-02
  1.415324649E-01  3.186872823E-01  6.491005188E-01  1.116611191E+00  8.961295078E-01
  1.116604337E+00  1.116602038E+00  8.961240954E-01  5.842002652E-01  3.186832674E-01
  1.539073844E-01  7.181324121E-02  3.576358002E-02  2.040754025E-02  1.369659305E-02
  1.078786765E-02  9.679705956E-03  9.405884669E-03  9.473628151E-03  9.653354716E-03
  9.849221890E-03  1.002008776E-02  1.014415022E-02  1.020865235E-02  1.020776227E-02
  1.014151235E-02  1.001580441E-02  9.843470085E-03  9.646377272E-03  9.465718380E-03
  9.397383351E-03  9.671010622E-03  1.077943024E-02  1.368888621E-02  2.040101365E-02
  3.575867299E-02  7.181046983E-02  1.539073517E-01  3.186863181E-01  5.842056825E-01
  4.289786270E-01  5.842023799E-01  6.490930335E-01  5.842002652E-01  4.289759058E-01
  2.632411333E-01  1.415329791E-01  7.181369753E-02  3.758635825E-02  2.180588603E-02
  1.453015434E-02  1.121224634E-02  9.847358968E-03  9.436753006E-03  9.445363973E-03
  9.607278367E-03  9.805884261E-03  9.991169646E-03  1.013737308E-02  1.022942927E-02
  1.026012484E-02  1.022762418E-02  1.013383015E-02  9.986028921E-03  9.799355660E-03
  9.599627146E-03  9.436899748E-03  9.427833602E-03  9.838397218E-03  1.120369548E-02
  1.452246354E-02  2.179945612E-02  3.758154879E-02  7.181086555E-02  1.415324058E-01
  2.632426946E-01  1.828954868E-01  2.632417736E-01  3.186836239E-01  3.186832674E-01
  2.632411333E-01  1.828954910E-01  1.111760883E-01  6.292360394E-02  3.576487362E-02
  2.180665845E-02  1.484123016E-02  1.146236298E-02  9.976686148E-03  9.473764321E-03
  9.432354485E-03  9.574660828E-03  9.771530884E-03  9.966564915E-03  1.013081362E-02
  1.024660664E-02  1.030518499E-02  1.030426145E-02  1.024386980E-02  1.012636773E-02
  9.960585404E-03  9.764253981E-03  9.566368874E-03  9.423371033E-03  9.464459535E-03
  9.967475764E-03  1.145368374E-02  1.483349214E-02  2.180020186E-02  3.575996175E-02
  6.292042226E-02  1.111746597E-01  7.691142607E-02  1.111750354E-01  1.415326223E-01
  1.539073844E-01  1.415329791E-01  1.111760883E-01  7.691360879E-02  4.926915379E-02
  3.107029806E-02  2.040985110E-02  1.453187883E-02  1.146329232E-02  1.002588016E-02
  9.498588410E-03  9.428480974E-03  9.554399795E-03  9.746575723E-03  9.946541710E-03
  1.012420889E-02  1.025987241E-02  1.034248660E-02  1.036929962E-02  1.034061480E-02
  1.025619809E-02  1.011887205E-02  9.939747440E-03  9.738580506E-03  9.545500221E-03
  9.419011751E-03  9.488923641E-03  1.001642496E-02  1.145445559E-02  1.452402889E-02
  2.040327291E-02  3.106517294E-02  4.926554638E-02  3.576177506E-02  4.926655830E-02
  6.292216243E-02  7.181324121E-02  7.181369753E-02  6.292360394E-02  4.926915379E-02
  3.576569098E-02  2.522276758E-02  1.809358061E-02  1.370000320E-02  1.121500461E-02
  9.978613011E-03  9.499571505E-03  9.428528286E-03  9.545184028E-03  9.731555184E-03
  9.931966105E-03  1.011767494E-02  1.026866743E-02  1.037158607E-02  1.042204055E-02
  1.042108552E-02  1.036875544E-02  1.026406514E-02  1.011147196E-02  9.924390605E-03
  9.722879785E-03  9.535717117E-03  9.418610265E-03  9.489571101E-03  9.968917083E-03
  1.120599425E-02  1.369201336E-02  1.808685657E-02  2.521744023E-02  1.977007889E-02
  2.521876524E-02  3.106767562E-02  3.576358002E-02  3.758635825E-02  3.576487362E-02
  3.107029806E-02  2.522276758E-02  1.977549610E-02  1.551877453E-02  1.258662538E-02
  1.079237422E-02  9.851142552E-03  9.476672699E-03  9.430423665E-03  9.546135838E-03
  9.727067931E-03  9.924434254E-03  1.011262654E-02  1.027331569E-02  1.039222766E-02
  1.046258775E-02  1.048489188E-02  1.046066234E-02  1.038844491E-02  1.026781048E-02
  1.010559471E-02  9.916122218E-03  9.717761666E-03  9.536151785E-03  9.420101831E-03
  9.466371873E-03  9.841232822E-03  1.078321599E-02  1.257853002E-02  1.551196237E-02
  1.320939626E-02  1.551344475E-02  1.808974745E-02  2.040754025E-02  2.180588603E-02
  2.180665845E-02  2.040985110E-02  1.809358061E-02  1.551877453E-02  1.321616940E-02
  1.146165755E-02  1.031147778E-02  9.685223394E-03  9.441475850E-03  9.436156908E-03
  9.557211562E-03  9.733364216E-03  9.925287135E-03  1.011113516E-02  1.027528124E-02
  1.040456937E-02  1.049075467E-02  1.053240529E-02  1.053142966E-02  1.048786113E-02
  1.039985698E-02  1.026891118E-02  1.010332365E-02  9.916296023E-03  9.723490121E-03
  9.546774859E-03  9.425494369E-03  9.430938410E-03  9.675170439E-03  1.030225466E-02
  1.145355661E-02  1.052016407E-02  1.145510002E-02  1.258159616E-02  1.369659305E-02
  1.453015434E-02  1.484123016E-02  1.453187883E-02  1.370000320E-02  1.258662538E-02
  1.146165755E-02  1.052811809E-02  9.883727475E-03  9.530907591E-03  9.412265447E-03
  9.450883829E-03  9.579216111E-03  9.750113106E-03  9.934485058E-03  1.011418086E-02
  1.027597874E-02  1.040901581E-02  1.050558615E-02  1.056263354E-02  1.058071814E-02
  1.056067992E-02  1.050174379E-02  1.040341164E-02  1.026879665E-02  1.010565500E-02
  9.924890580E-03  9.739754079E-03  9.568414414E-03  9.439974550E-03  9.401596674E-03
  9.520831846E-03  9.874575440E-03  9.572850277E-03  9.876106019E-03  1.030533916E-02
  1.078786765E-02  1.121224634E-02  1.146236298E-02  1.146329232E-02  1.121500461E-02
  1.079237422E-02  1.031147778E-02  9.883727475E-03  9.581758427E-03  9.428418796E-03
  9.406776576E-03  9.480688870E-03  9.613417464E-03  9.776660563E-03  9.950621512E-03
  1.012071436E-02  1.027537595E-02  1.040576377E-02  1.050607875E-02  1.057335937E-02
  1.060658350E-02  1.060560154E-02  1.057044558E-02  1.050132741E-02  1.039932673E-02
  1.026745739E-02  1.011156413E-02  9.940525039E-03  9.765926557E-03  9.602369527E-03
  9.469663974E-03  9.396122940E-03  9.418481175E-03  9.387701792E-03  9.419945042E-03
  9.523815029E-03  9.679705956E-03  9.847358968E-03  9.976686148E-03  1.002588016E-02
  9.978613011E-03  9.851142552E-03  9.685223394E-03  9.530907591E-03  9.428418796E-03
  9.397315903E-03  9.436146815E-03  9.530138132E-03  9.660892194E-03  9.812440969E-03
  9.972062748E-03  1.012861702E-02  1.027200495E-02  1.039456461E-02  1.049221177E-02
  1.056338102E-02  1.060683546E-02  1.062094552E-02  1.060488929E-02  1.055955121E-02
  1.048661916E-02  1.038738297E-02  1.026345578E-02  1.011896248E-02  9.961595153E-03
  9.801472438E-03  9.649749823E-03  9.519162828E-03  9.425685696E-03  9.492457241E-03
  9.427049421E-03  9.398925698E-03  9.405884669E-03  9.436753006E-03  9.473764321E-03
  9.498588410E-03  9.499571505E-03  9.476672699E-03  9.441475850E-03  9.412265447E-03
  9.406776576E-03  9.436146815E-03  9.502530933E-03  9.600700253E-03  9.721868163E-03
  9.857015939E-03  9.997921018E-03  1.013645002E-02  1.026437168E-02  1.037497829E-02
  1.046495397E-02  1.053387550E-02  1.058146988E-02  1.060585451E-02  1.060489029E-02
  1.057860810E-02  1.052920619E-02  1.045862065E-02  1.036717268E-02  1.025532874E-02
  1.012644067E-02  9.987242342E-03  9.845983436E-03  9.710812971E-03  9.589965377E-03
  9.680228505E-03  9.591211683E-03  9.521741416E-03  9.473628151E-03  9.445363973E-03
  9.432354485E-03  9.428480974E-03  9.428528286E-03  9.430423665E-03  9.436156908E-03
  9.450883829E-03  9.480688870E-03  9.530138132E-03  9.600700253E-03  9.690517998E-03
  9.795311440E-03  9.909673127E-03  1.002790003E-02  1.014407750E-02  1.025213618E-02
  1.034682942E-02  1.042523995E-02  1.048704118E-02  1.053266855E-02  1.056119370E-02
  1.057046023E-02  1.055931719E-02  1.052897435E-02  1.048164231E-02  1.041829779E-02
  1.033854952E-02  1.024276381E-02  1.013389018E-02  1.001719824E-02  9.898774376E-03
  9.784547788E-03  9.868585359E-03  9.785671280E-03  9.713148895E-03  9.653354716E-03
  9.607278367E-03  9.574660828E-03  9.554399795E-03  9.545184028E-03  9.546135838E-03
  9.557211562E-03  9.579216111E-03  9.613417464E-03  9.660892194E-03  9.721868163E-03
  9.795311440E-03  9.878842698E-03  9.968945175E-03  1.006138629E-02  1.015173051E-02
  1.023583684E-02  1.031036051E-02  1.037324441E-02  1.042385717E-02  1.046236570E-02
  1.048864479E-02  1.050180121E-02  1.050089153E-02  1.048594392E-02  1.045795570E-02
  1.041786879E-02  1.036585271E-02  1.030178217E-02  1.022632563E-02  1.014156836E-02
  1.005087379E-02  9.958397090E-03  1.002241701E-02  9.959402899E-03  9.900868888E-03
  9.849221890E-03  9.805884261E-03  9.771530884E-03  9.746575723E-03  9.731555184E-03
  9.727067931E-03  9.733364216E-03  9.750113106E-03  9.776660563E-03  9.812440969E-03
  9.857015939E-03  9.909673127E-03  9.968945175E-03  1.003239302E-02  1.009680606E-02
  1.015882698E-02  1.021575298E-02  1.026599277E-02  1.030884919E-02  1.034393913E-02
  1.037088733E-02  1.038949879E-02  1.039998987E-02  1.040282592E-02  1.039826234E-02
  1.038609556E-02  1.036590856E-02  1.033752909E-02  1.030119403E-02  1.025731848E-02
  1.020631883E-02  1.014891422E-02  1.008670903E-02  1.012231431E-02  1.008761206E-02
  1.005274694E-02  1.002008776E-02  9.991169646E-03  9.966564915E-03  9.946541710E-03
  9.931966105E-03  9.924434254E-03  9.925287135E-03  9.934485058E-03  9.950621512E-03
  9.972062748E-03  9.997921018E-03  1.002790003E-02  1.006138629E-02  1.009680606E-02
  1.013177198E-02  1.016383914E-02  1.019139856E-02  1.021415249E-02  1.023273043E-02
  1.024766079E-02  1.025870674E-02  1.026537371E-02  1.026804152E-02  1.026823071E-02
  1.026741648E-02  1.026562285E-02  1.026142130E-02  1.025333485E-02  1.024102457E-02
  1.022502474E-02  1.020560855E-02  1.018227439E-02  1.015440750E-02  1.015644981E-02
  1.015522958E-02  1.015060220E-02  1.014415022E-02  1.013737308E-02  1.013081362E-02
  1.012420889E-02  1.011767494E-02  1.011262654E-02  1.011113516E-02  1.011418086E-02
  1.012071436E-02  1.012861702E-02  1.013645002E-02  1.014407750E-02  1.015173051E-02
  1.015882698E-02  1.016383914E-02  1.016517629E-02  1.016219028E-02  1.015558181E-02
  1.014699002E-02  1.013798522E-02  1.012918806E-02  1.012040534E-02  1.011180942E-02
  1.010486689E-02  1.010170648E-02  1.010336901E-02  1.010885722E-02  1.011608476E-02
  1.012362486E-02  1.013134260E-02  1.013946662E-02  1.014740627E-02  1.015361057E-02
  1.012066551E-02  1.015437640E-02  1.018382291E-02  1.020865235E-02  1.022942927E-02
  1.024660664E-02  1.025987241E-02  1.026866743E-02  1.027331569E-02  1.027528124E-02
  1.027597874E-02  1.027537595E-02  1.027200495E-02  1.026437168E-02  1.025213618E-02
  1.023583684E-02  1.021575298E-02  1.019139856E-02  1.016219028E-02  1.012847735E-02
  1.009192282E-02  1.005502294E-02  1.002020883E-02  9.989089448E-03  9.962308626E-03
  9.940192575E-03  9.923656118E-03  9.914347321E-03  9.913667017E-03  9.921634864E-03
  9.936889908E-03  9.957823362E-03  9.983556080E-03  1.001379349E-02  1.004792024E-02
  1.008435013E-02  1.001918522E-02  1.008508471E-02  1.014886415E-02  1.020776227E-02
  1.026012484E-02  1.030518499E-02  1.034248660E-02  1.037158607E-02  1.039222766E-02
  1.040456937E-02  1.040901581E-02  1.040576377E-02  1.039456461E-02  1.037497829E-02
  1.034682942E-02  1.031036051E-02  1.026599277E-02  1.021415249E-02  1.015558181E-02
  1.009192282E-02  1.002593376E-02  9.961026110E-03  9.900456165E-03  9.846696276E-03
  9.801237180E-03  9.764812222E-03  9.737882345E-03  9.721030282E-03  9.714909672E-03
  9.719831706E-03  9.735520610E-03  9.761360678E-03  9.796805252E-03  9.841422443E-03
  9.894502325E-03  9.954575187E-03  9.863908373E-03  9.955303308E-03  1.004933673E-02
  1.014151235E-02  1.022762418E-02  1.030426145E-02  1.036929962E-02  1.042204055E-02
  1.046258775E-02  1.049075467E-02  1.050558615E-02  1.050607875E-02  1.049221177E-02
  1.046495397E-02  1.042523995E-02  1.037324441E-02  1.030884919E-02  1.023273043E-02
  1.014699002E-02  1.005502294E-02  9.961026110E-03  9.869490947E-03  9.784697584E-03
  9.710196055E-03  9.648384741E-03  9.600309849E-03  9.565757755E-03  9.543667161E-03
  9.532774163E-03  9.532257569E-03  9.542132535E-03  9.563254055E-03  9.596922823E-03
  9.644230409E-03  9.705410073E-03  9.779430637E-03  9.674313784E-03  9.780176300E-03
  9.895926327E-03  1.001580441E-02  1.013383015E-02  1.024386980E-02  1.034061480E-02
  1.042108552E-02  1.048489188E-02  1.053240529E-02  1.056263354E-02  1.057335937E-02
  1.056338102E-02  1.053387550E-02  1.048704118E-02  1.042385717E-02  1.034393913E-02
  1.024766079E-02  1.013798522E-02  1.002020883E-02  9.900456165E-03  9.784697584E-03
  9.678684580E-03  9.587859321E-03  9.516520236E-03  9.466531042E-03  9.436427183E-03
  9.421649806E-03  9.416117846E-03  9.414662727E-03  9.415266341E-03  9.419974503E-03
  9.433990233E-03  9.463427831E-03  9.512866554E-03  9.583780373E-03  9.485568560E-03
  9.584564450E-03  9.706886981E-03  9.843470085E-03  9.986028921E-03  1.012636773E-02
  1.025619809E-02  1.036875544E-02  1.046066234E-02  1.053142966E-02  1.058071814E-02
  1.060658350E-02  1.060683546E-02  1.058146988E-02  1.053266855E-02  1.046236570E-02
  1.037088733E-02  1.025870674E-02  1.012918806E-02  9.989089448E-03  9.846696276E-03
  9.710196055E-03  9.587859321E-03  9.488741300E-03  9.421649692E-03  9.391818109E-03
  9.397086566E-03  9.426311364E-03  9.461751932E-03  9.485109966E-03  9.484774400E-03
  9.460757088E-03  9.424698073E-03  9.394929364E-03  9.389215663E-03  9.418708459E-03
  9.380151123E-03  9.419544989E-03  9.514432104E-03  9.646377272E-03  9.799355660E-03
  9.960585404E-03  1.011887205E-02  1.026406514E-02  1.038844491E-02  1.048786113E-02
  1.056067992E-02  1.060560154E-02  1.062094552E-02  1.060585451E-02  1.056119370E-02
  1.048864479E-02  1.038949879E-02  1.026537371E-02  1.012040534E-02  9.962308626E-03
  9.801237180E-03  9.648384741E-03  9.516520236E-03  9.421649692E-03  9.382195698E-03
  9.412938348E-03  9.515317670E-03  9.669752401E-03  9.835995992E-03  9.963973051E-03
  1.001189978E-02  9.963488078E-03  9.835050821E-03  9.668402582E-03  9.513645563E-03
  9.411036054E-03  9.565003834E-03  9.411928675E-03  9.390889348E-03  9.465718380E-03
  9.599627146E-03  9.764253981E-03  9.939747440E-03  1.011147196E-02  1.026781048E-02
  1.039985698E-02  1.050174379E-02  1.057044558E-02  1.060488929E-02  1.060489029E-02
  1.057046023E-02  1.050180121E-02  1.039998987E-02  1.026804152E-02  1.011180942E-02
  9.940192575E-03  9.764812222E-03  9.600309849E-03  9.466531042E-03  9.391818109E-03
  9.412938348E-03  9.566044419E-03  9.868051629E-03  1.029607269E-02  1.077742560E-02
  1.120065494E-02  1.144964529E-02  1.144948883E-02  1.120019879E-02  1.077671175E-02
  1.029517030E-02  9.867042319E-03  1.051244559E-02  9.867981864E-03  9.515425771E-03
  9.397383351E-03  9.436899748E-03  9.566368874E-03  9.738580506E-03  9.924390605E-03
  1.010559471E-02  1.026891118E-02  1.040341164E-02  1.050132741E-02  1.055955121E-02
  1.057860810E-02  1.055931719E-02  1.050089153E-02  1.040282592E-02  1.026823071E-02
  1.010486689E-02  9.923656118E-03  9.737882345E-03  9.565757755E-03  9.436427183E-03
  9.397086566E-03  9.515317670E-03  9.868051629E-03  1.051266193E-02  1.144667234E-02
  1.257228863E-02  1.368641967E-02  1.451909235E-02  1.482923925E-02  1.451893731E-02
  1.368614413E-02  1.257195650E-02  1.144636201E-02  1.320226596E-02  1.144732515E-02
  1.029703108E-02  9.671010622E-03  9.427833602E-03  9.423371033E-03  9.545500221E-03
  9.722879785E-03  9.916122218E-03  1.010332365E-02  1.026879665E-02  1.039932673E-02
  1.048661916E-02  1.052920619E-02  1.052897435E-02  1.048594392E-02  1.039826234E-02
  1.026741648E-02  1.010170648E-02  9.914347321E-03  9.721030282E-03  9.543667161E-03
  9.421649806E-03  9.426311364E-03  9.669752401E-03  1.029607269E-02  1.144667234E-02
  1.320189391E-02  1.550540229E-02  1.808119880E-02  2.039844648E-02  2.179613667E-02
  2.179611275E-02  2.039840189E-02  1.808120501E-02  1.550555008E-02  1.976400578E-02
  1.550649670E-02  1.257384401E-02  1.077943024E-02  9.838397218E-03  9.464459535E-03
  9.419011751E-03  9.535717117E-03  9.717761666E-03  9.916296023E-03  1.010565500E-02
  1.026745739E-02  1.038738297E-02  1.045862065E-02  1.048164231E-02  1.045795570E-02
  1.038609556E-02  1.026562285E-02  1.010336901E-02  9.913667017E-03  9.714909672E-03
  9.532774163E-03  9.416117846E-03  9.461751932E-03  9.835995992E-03  1.077742560E-02
  1.257228863E-02  1.550540229E-02  1.976334013E-02  2.521195186E-02  3.106079277E-02
  3.575648383E-02  3.757877129E-02  3.575648359E-02  3.106088364E-02  2.521226876E-02
  3.575728204E-02  2.521312875E-02  1.808302661E-02  1.368888621E-02  1.120369548E-02
  9.967475764E-03  9.488923641E-03  9.418610265E-03  9.536151785E-03  9.723490121E-03
  9.924890580E-03  1.011156413E-02  1.026345578E-02  1.036717268E-02  1.041829779E-02
  1.041786879E-02  1.036590856E-02  1.026142130E-02  1.010885722E-02  9.921634864E-03
  9.719831706E-03  9.532257569E-03  9.414662727E-03  9.485109966E-03  9.963973051E-03
  1.120065494E-02  1.368641967E-02  1.808119880E-02  2.521195186E-02  3.575669984E-02
  4.926205505E-02  6.291815960E-02  7.180934637E-02  7.180928753E-02  6.291808235E-02
  4.926219114E-02  7.690926265E-02  4.926281895E-02  3.106246645E-02  2.040101365E-02
  1.452246354E-02  1.145368374E-02  1.001642496E-02  9.489571101E-03  9.420101831E-03
  9.546774859E-03  9.739754079E-03  9.940525039E-03  1.011896248E-02  1.025532874E-02
  1.033854952E-02  1.036585271E-02  1.033752909E-02  1.025333485E-02  1.011608476E-02
  9.936889908E-03  9.735520610E-03  9.542132535E-03  9.415266341E-03  9.484774400E-03
  1.001189978E-02  1.144964529E-02  1.451909235E-02  2.039844648E-02  3.106079277E-02
  4.926205505E-02  7.690927964E-02  1.111744481E-01  1.415332533E-01  1.539082571E-01
  1.415328394E-01  1.111739910E-01  1.828967827E-01  1.111740663E-01  6.291906190E-02
  3.575867299E-02  2.179945612E-02  1.483349214E-02  1.145445559E-02  9.968917083E-03
  9.466371873E-03  9.425494369E-03  9.568414414E-03  9.765926557E-03  9.961595153E-03
  1.012644067E-02  1.024276381E-02  1.030178217E-02  1.030119403E-02  1.024102457E-02
  1.012362486E-02  9.957823362E-03  9.761360678E-03  9.563254055E-03  9.419974503E-03
  9.460757088E-03  9.963488078E-03  1.144948883E-02  1.482923925E-02  2.179613667E-02
  3.575648383E-02  6.291815960E-02  1.111744481E-01  1.828980807E-01  2.632472634E-01
  3.186909324E-01  3.186903260E-01  2.632458549E-01  4.289845922E-01  2.632447461E-01
  1.415324649E-01  7.181046983E-02  3.758154879E-02  2.180020186E-02  1.452402889E-02
  1.120599425E-02  9.841232822E-03  9.430938410E-03  9.439974550E-03  9.602369527E-03
  9.801472438E-03  9.987242342E-03  1.013389018E-02  1.022632563E-02  1.025731848E-02
  1.022502474E-02  1.013134260E-02  9.983556080E-03  9.796805252E-03  9.596922823E-03
  9.433990233E-03  9.424698073E-03  9.835050821E-03  1.120019879E-02  1.451893731E-02
  2.179611275E-02  3.757877129E-02  7.180934637E-02  1.415332533E-01  2.632472634E-01
  4.289878327E-01  5.842156844E-01  6.491079762E-01  5.842133877E-01  8.961401876E-01
  5.842100971E-01  3.186872823E-01  1.539073517E-01  7.181086555E-02  3.575996175E-02
  2.040327291E-02  1.369201336E-02  1.078321599E-02  9.675170439E-03  9.401596674E-03
  9.469663974E-03  9.649749823E-03  9.845983436E-03  1.001719824E-02  1.014156836E-02
  1.020631883E-02  1.020560855E-02  1.013946662E-02  1.001379349E-02  9.841422443E-03
  9.644230409E-03  9.463427831E-03  9.394929364E-03  9.668402582E-03  1.077671175E-02
  1.368614413E-02  2.039840189E-02  3.575648359E-02  7.180928753E-02  1.539082571E-01
  3.186909324E-01  5.842156844E-01  8.961454509E-01  1.116624423E+00  1.116622243E+00
  1.563251751E+00  1.116615673E+00  6.491005188E-01  3.186863181E-01  1.415324058E-01
  6.292042226E-02  3.106517294E-02  1.808685657E-02  1.257853002E-02  1.030225466E-02
  9.520831846E-03  9.396122940E-03  9.519162828E-03  9.710812971E-03  9.898774376E-03
  1.005087379E-02  1.014891422E-02  1.018227439E-02  1.014740627E-02  1.004792024E-02
  9.894502325E-03  9.705410073E-03  9.512866554E-03  9.389215663E-03  9.513645563E-03
  1.029517030E-02  1.257195650E-02  1.808120501E-02  3.106088364E-02  6.291808235E-02
  1.415328394E-01  3.186903260E-01  6.491079762E-01  1.116624423E+00  1.563257810E+00
  1.751512588E+00  2.203310055E+00  1.751502282E+00  1.116611191E+00  5.842056825E-01
  2.632426946E-01  1.111746597E-01  4.926554638E-02  2.521744023E-02  1.551196237E-02
  1.145355661E-02  9.874575440E-03  9.418481175E-03  9.425685696E-03  9.589965377E-03
  9.784547788E-03  9.958397090E-03  1.008670903E-02  1.015440750E-02  1.015361057E-02
  1.008435013E-02  9.954575187E-03  9.779430637E-03  9.583780373E-03  9.418708459E-03
  9.411036054E-03  9.867042319E-03  1.144636201E-02  1.550555008E-02  2.521226876E-02
  4.926219114E-02  1.111739910E-01  2.632458549E-01  5.842133877E-01  1.116622243E+00
  1.751512588E+00  2.203314325E+00  1.717713413E+00  1.533297284E+00  1.095727163E+00
  6.375612111E-01  3.135613242E-01  1.396682628E-01  6.238759057E-02  3.102242606E-02
  1.823980759E-02  1.283312730E-02  1.062520721E-02  9.896862611E-03  9.816680011E-03
  9.978536799E-03  1.020390766E-02  1.041978157E-02  1.059279198E-02  1.070370446E-02
  1.074130159E-02  1.070186354E-02  1.058918929E-02  1.041457350E-02  1.019731812E-02
  9.970844129E-03  9.808214020E-03  9.888013219E-03  1.061642466E-02  1.282489453E-02
  1.823259881E-02  3.101671556E-02  6.238396347E-02  1.396675209E-01  3.135642711E-01
  6.375677980E-01  1.095735340E+00  1.533303087E+00  1.533297284E+00  1.533294379E+00
  1.224564445E+00  7.893468665E-01  4.217445286E-01  1.969481346E-01  8.771646768E-02
  4.149078699E-02  2.265672226E-02  1.474083088E-02  1.138580651E-02  1.011849815E-02
  9.808069515E-03  9.889132746E-03  1.009804536E-02  1.032439826E-02  1.052137064E-02
  1.066455807E-02  1.073926404E-02  1.073831020E-02  1.066173716E-02  1.051680383E-02
  1.031828130E-02  1.009063576E-02  9.880739965E-03  9.799057800E-03  1.010929352E-02
  1.137688636E-02  1.473268788E-02  2.264983509E-02  4.148566580E-02  8.771377066E-02
  1.969486599E-01  4.217487472E-01  7.893538957E-01  1.224571333E+00  1.095727163E+00
  1.224564445E+00  1.095723124E+00  7.893455200E-01  4.667825145E-01  2.361349298E-01
  1.098396212E-01  5.188383118E-02  2.732517968E-02  1.686539225E-02  1.231517252E-02
  1.045410010E-02  9.865045178E-03  9.834369658E-03  1.001036860E-02  1.023813680E-02
  1.045294552E-02  1.062371477E-02  1.073234527E-02  1.076892591E-02  1.073040218E-02
  1.061990978E-02  1.044743897E-02  1.023115923E-02  1.000220778E-02  9.825364390E-03
  9.855589078E-03  1.044464271E-02  1.230620043E-02  1.685739156E-02  2.731862089E-02
  5.187922463E-02  1.098375782E-01  2.361360049E-01  4.667866040E-01  7.893510587E-01
  6.375612111E-01  7.893468665E-01  7.893455200E-01  6.375581435E-01  4.217435466E-01
  2.361349366E-01  1.187965315E-01  5.857516505E-02  3.102743801E-02  1.876444034E-02
  1.324021268E-02  1.084337638E-02  9.973323136E-03  9.814658586E-03  9.944338693E-03
  1.016453944E-02  1.039080512E-02  1.058421485E-02  1.072279122E-02  1.079411996E-02
  1.079312322E-02  1.071984128E-02  1.057943247E-02  1.038438741E-02  1.015674860E-02
  9.935489542E-03  9.805113850E-03  9.963495404E-03  1.083372395E-02  1.323121600E-02
  1.875656468E-02  3.102112111E-02  5.857084922E-02  1.187946448E-01  2.361356481E-01
  4.217462653E-01  3.135613242E-01  4.217445286E-01  4.667825145E-01  4.217435466E-01
  3.135603547E-01  1.969484412E-01  1.098404157E-01  5.857578176E-02  3.245514591E-02
  1.990413264E-02  1.393291562E-02  1.119151369E-02  1.009996785E-02  9.822552793E-03
  9.900947744E-03  1.010657855E-02  1.033788317E-02  1.054863097E-02  1.071288492E-02
  1.081531813E-02  1.084926140E-02  1.081329437E-02  1.070891806E-02  1.054288105E-02
  1.033058208E-02  1.009801654E-02  9.891461353E-03  9.812520304E-03  1.008980928E-02
  1.118168358E-02  1.392387615E-02  1.989631339E-02  3.244892182E-02  5.857146977E-02
  1.098382067E-01  1.969481872E-01  1.396682628E-01  1.969481346E-01  2.361349298E-01
  2.361349366E-01  1.969484412E-01  1.396695063E-01  8.771830042E-02  5.188574296E-02
  3.102899881E-02  1.990502618E-02  1.419162133E-02  1.139853223E-02  1.020172352E-02
  9.843343431E-03  9.877553820E-03  1.006583624E-02  1.029659543E-02  1.051886316E-02
  1.070396508E-02  1.083351633E-02  1.089872090E-02  1.089768277E-02  1.083044270E-02
  1.069897759E-02  1.051215972E-02  1.028843888E-02  1.005653969E-02  9.867469005E-03
  9.832855874E-03  1.019125125E-02  1.138851656E-02  1.418249684E-02  1.989717575E-02
  3.102271975E-02  5.188122222E-02  8.771555151E-02  6.238759057E-02  8.771646768E-02
  1.098396212E-01  1.187965315E-01  1.098404157E-01  8.771830042E-02  6.239078294E-02
  4.149413531E-02  2.732835127E-02  1.876713331E-02  1.393487946E-02  1.139957566E-02
  1.024128971E-02  9.860035210E-03  9.868256922E-03  1.004157217E-02  1.026819845E-02
  1.049617884E-02  1.069641880E-02  1.084852690E-02  1.094094143E-02  1.097091006E-02
  1.093883298E-02  1.084439207E-02  1.069041845E-02  1.048854411E-02  1.025921752E-02
  1.003157562E-02  9.857605990E-03  9.849116139E-03  1.023051184E-02  1.138936097E-02
  1.392563061E-02  1.875918669E-02  2.732193887E-02  4.148936000E-02  3.102242606E-02
  4.149078699E-02  5.188383118E-02  5.857516505E-02  5.857578176E-02  5.188574296E-02
  4.149413531E-02  3.102733962E-02  2.266155914E-02  1.686990003E-02  1.324414030E-02
  1.119464032E-02  1.020388305E-02  9.861129739E-03  9.866786545E-03  1.003115743E-02
  1.025239290E-02  1.048125365E-02  1.069042973E-02  1.085957353E-02  1.097479337E-02
  1.103139366E-02  1.103031491E-02  1.097159818E-02  1.085438295E-02  1.068343847E-02
  1.047271988E-02  1.024262518E-02  1.002049970E-02  9.855604995E-03  9.849806720E-03
  1.019281560E-02  1.118422941E-02  1.323475929E-02  1.686185105E-02  2.265503930E-02
  1.823980759E-02  2.265672226E-02  2.732517968E-02  3.102743801E-02  3.245514591E-02
  3.102899881E-02  2.732835127E-02  2.266155914E-02  1.824631137E-02  1.474712496E-02
  1.232102505E-02  1.084855210E-02  1.010426391E-02  9.846615547E-03  9.870429090E-03
  1.003221934E-02  1.024801475E-02  1.047428447E-02  1.068659822E-02  1.086644541E-02
  1.099927659E-02  1.107810622E-02  1.110318948E-02  1.107592653E-02  1.099499691E-02
  1.086022053E-02  1.067865069E-02  1.046489516E-02  1.023750948E-02  1.002095181E-02
  9.858766557E-03  9.834934156E-03  1.009294836E-02  1.083798492E-02  1.231155813E-02
  1.473904364E-02  1.283312730E-02  1.474083088E-02  1.686539225E-02  1.876444034E-02
  1.990413264E-02  1.990502618E-02  1.876713331E-02  1.686990003E-02  1.474712496E-02
  1.284109734E-02  1.139346445E-02  1.046121529E-02  9.979670358E-03  9.827945628E-03
  9.881865778E-03  1.004474347E-02  1.025442803E-02  1.047524560E-02  1.068577746E-02
  1.086986102E-02  1.101408302E-02  1.111025877E-02  1.115691872E-02  1.115581125E-02
  1.110697517E-02  1.100873722E-02  1.086263673E-02  1.067692198E-02  1.046506057E-02
  1.024325355E-02  1.003293877E-02  9.869796559E-03  9.815982259E-03  9.968187777E-03
  1.045058245E-02  1.138402133E-02  1.062520721E-02  1.138580651E-02  1.231517252E-02
  1.324021268E-02  1.393291562E-02  1.419162133E-02  1.393487946E-02  1.324414030E-02
  1.232102505E-02  1.139346445E-02  1.063445790E-02  1.012734512E-02  9.873260545E-03
  9.822028582E-03  9.907299529E-03  1.007105471E-02  1.027223343E-02  1.048411993E-02
  1.068836986E-02  1.087066250E-02  1.101943146E-02  1.112698243E-02  1.119051483E-02
  1.121067604E-02  1.118829149E-02  1.112260992E-02  1.101305439E-02  1.086249157E-02
  1.067867639E-02  1.047322395E-02  1.026048453E-02  1.005881375E-02  9.894930402E-03
  9.809898229E-03  9.861737445E-03  1.011679005E-02  9.896862611E-03  1.011849815E-02
  1.045410010E-02  1.084337638E-02  1.119151369E-02  1.139853223E-02  1.139957566E-02
  1.119464032E-02  1.084855210E-02  1.046121529E-02  1.012734512E-02  9.907151946E-03
  9.817876860E-03  9.843472749E-03  9.952533433E-03  1.011369987E-02  1.030253285E-02
  1.050088692E-02  1.069393159E-02  1.086882664E-02  1.101547967E-02  1.112757210E-02
  1.120231929E-02  1.123908883E-02  1.123796823E-02  1.119899369E-02  1.112214825E-02
  1.100813132E-02  1.085979102E-02  1.068350183E-02  1.048939619E-02  1.029033490E-02
  1.010115562E-02  9.940006757E-03  9.831329539E-03  9.806481910E-03  9.816680011E-03
  9.808069515E-03  9.865045178E-03  9.973323136E-03  1.009996785E-02  1.020172352E-02
  1.024128971E-02  1.020388305E-02  1.010426391E-02  9.979670358E-03  9.873260545E-03
  9.817876860E-03  9.827745934E-03  9.899651185E-03  1.002012131E-02  1.017332674E-02
  1.034554143E-02  1.052528231E-02  1.070155756E-02  1.086346487E-02  1.100201902E-02
  1.111200008E-02  1.119144100E-02  1.123942247E-02  1.125486295E-02  1.123719500E-02
  1.118705613E-02  1.110559523E-02  1.099379586E-02  1.085368450E-02  1.069052916E-02
  1.051334568E-02  1.033305136E-02  1.016064501E-02  1.000761338E-02  9.887682775E-03
  9.978536799E-03  9.889132746E-03  9.834369658E-03  9.814658586E-03  9.822552793E-03
  9.843343431E-03  9.860035210E-03  9.861129739E-03  9.846615547E-03  9.827945628E-03
  9.822028582E-03  9.843472749E-03  9.899651185E-03  9.990119090E-03  1.010901946E-02
  1.024828404E-02  1.039992467E-02  1.055655709E-02  1.071058869E-02  1.085381458E-02
  1.097879159E-02  1.108092761E-02  1.115872213E-02  1.121165522E-02  1.123835144E-02
  1.123724462E-02  1.120836921E-02  1.115335866E-02  1.107365246E-02  1.096983087E-02
  1.084344727E-02  1.069913295E-02  1.054435473E-02  1.038733069E-02  1.023566145E-02
  1.009673458E-02  1.020390766E-02  1.009804536E-02  1.001036860E-02  9.944338693E-03
  9.900947744E-03  9.877553820E-03  9.868256922E-03  9.866786545E-03  9.870429090E-03
  9.881865778E-03  9.907299529E-03  9.952533433E-03  1.002012131E-02  1.010901946E-02
  1.021574712E-02  1.033556405E-02  1.046321510E-02  1.059338386E-02  1.072078655E-02
  1.084004715E-02  1.094608108E-02  1.103520442E-02  1.110579736E-02  1.115738497E-02
  1.118903297E-02  1.119913851E-02  1.118687149E-02  1.115312880E-02  1.109957688E-02
  1.102720969E-02  1.093655687E-02  1.082928350E-02  1.070910505E-02  1.058112550E-02
  1.045073358E-02  1.032322134E-02  1.041978157E-02  1.032439826E-02  1.023813680E-02
  1.016453944E-02  1.010657855E-02  1.006583624E-02  1.004157217E-02  1.003115743E-02
  1.003221934E-02  1.004474347E-02  1.007105471E-02  1.011369987E-02  1.017332674E-02
  1.024828404E-02  1.033556405E-02  1.043161087E-02  1.053245195E-02  1.063382165E-02
  1.073171745E-02  1.082290033E-02  1.090486686E-02  1.097561546E-02  1.103365712E-02
  1.107804313E-02  1.110804478E-02  1.112284469E-02  1.112179300E-02  1.110492248E-02
  1.107294618E-02  1.102674004E-02  1.096708707E-02  1.089498453E-02  1.081195946E-02
  1.072003853E-02  1.062174116E-02  1.052031851E-02  1.059279198E-02  1.052137064E-02
  1.045294552E-02  1.039080512E-02  1.033788317E-02  1.029659543E-02  1.026819845E-02
  1.025239290E-02  1.024801475E-02  1.025442803E-02  1.027223343E-02  1.030253285E-02
  1.034554143E-02  1.039992467E-02  1.046321510E-02  1.053245195E-02  1.060433542E-02
  1.067527327E-02  1.074200446E-02  1.080251902E-02  1.085624559E-02  1.090317479E-02
  1.094284467E-02  1.097422023E-02  1.099637817E-02  1.100906812E-02  1.101255897E-02
  1.100706326E-02  1.099243105E-02  1.096845114E-02  1.093542658E-02  1.089432966E-02
  1.084623788E-02  1.079164373E-02  1.073057521E-02  1.066361700E-02  1.070370446E-02
  1.066455807E-02  1.062371477E-02  1.058421485E-02  1.054863097E-02  1.051886316E-02
  1.049617884E-02  1.048125365E-02  1.047428447E-02  1.047524560E-02  1.048411993E-02
  1.050088692E-02  1.052528231E-02  1.055655709E-02  1.059338386E-02  1.063382165E-02
  1.067527327E-02  1.071469041E-02  1.074934083E-02  1.077786748E-02  1.080073192E-02
  1.081942863E-02  1.083504211E-02  1.084748430E-02  1.085607214E-02  1.086066856E-02
  1.086204702E-02  1.086109832E-02  1.085785274E-02  1.085147667E-02  1.084124764E-02
  1.082734985E-02  1.081051029E-02  1.079085245E-02  1.076731402E-02  1.073841394E-02
  1.074130159E-02  1.073926404E-02  1.073234527E-02  1.072279122E-02  1.071288492E-02
  1.070396508E-02  1.069641880E-02  1.069042973E-02  1.068659822E-02  1.068577746E-02
  1.068836986E-02  1.069393159E-02  1.070155756E-02  1.071058869E-02  1.072078655E-02
  1.073171745E-02  1.074200446E-02  1.074934083E-02  1.075147871E-02  1.074749997E-02
  1.073838331E-02  1.072642732E-02  1.071398457E-02  1.070248285E-02  1.069240706E-02
  1.068402999E-02  1.067802115E-02  1.067528526E-02  1.067627112E-02  1.068058588E-02
  1.068737479E-02  1.069601275E-02  1.070626909E-02  1.071769666E-02  1.072889438E-02
  1.073752465E-02  1.070186354E-02  1.073831020E-02  1.076892591E-02  1.079411996E-02
  1.081531813E-02  1.083351633E-02  1.084852690E-02  1.085957353E-02  1.086644541E-02
  1.086986102E-02  1.087066250E-02  1.086882664E-02  1.086346487E-02  1.085381458E-02
  1.084004715E-02  1.082290033E-02  1.080251902E-02  1.077786748E-02  1.074749997E-02
  1.071101330E-02  1.066982707E-02  1.062672749E-02  1.058480748E-02  1.054670916E-02
  1.051441958E-02  1.048929912E-02  1.047210621E-02  1.046310071E-02  1.046230354E-02
  1.046974100E-02  1.048544135E-02  1.050918728E-02  1.054025883E-02  1.057733187E-02
  1.061844894E-02  1.066098641E-02  1.058918929E-02  1.066173716E-02  1.073040218E-02
  1.079312322E-02  1.084926140E-02  1.089872090E-02  1.094094143E-02  1.097479337E-02
  1.099927659E-02  1.101408302E-02  1.101943146E-02  1.101547967E-02  1.100201902E-02
  1.097879159E-02  1.094608108E-02  1.090486686E-02  1.085624559E-02  1.080073192E-02
  1.073838331E-02  1.066982707E-02  1.059713652E-02  1.052363027E-02  1.045294573E-02
  1.038842312E-02  1.033306397E-02  1.028936683E-02  1.025867459E-02  1.024076260E-02
  1.023452143E-02  1.023935577E-02  1.025590821E-02  1.028533010E-02  1.032788169E-02
  1.038225212E-02  1.044597138E-02  1.051605930E-02  1.041457350E-02  1.051680383E-02
  1.061990978E-02  1.071984128E-02  1.081329437E-02  1.089768277E-02  1.097091006E-02
  1.103139366E-02  1.107810622E-02  1.111025877E-02  1.112698243E-02  1.112757210E-02
  1.111200008E-02  1.108092761E-02  1.103520442E-02  1.097561546E-02  1.090317479E-02
  1.081942863E-02  1.072642732E-02  1.062672749E-02  1.052363027E-02  1.042119789E-02
  1.032374275E-02  1.023527501E-02  1.015938700E-02  1.009911595E-02  1.005612145E-02
  1.002974153E-02  1.001741128E-02  1.001680235E-02  1.002793666E-02  1.005318395E-02
  1.009514402E-02  1.015450704E-02  1.022963738E-02  1.031751847E-02  1.019731812E-02
  1.031828130E-02  1.044743897E-02  1.057943247E-02  1.070891806E-02  1.083044270E-02
  1.093883298E-02  1.103031491E-02  1.110318948E-02  1.115691872E-02  1.119051483E-02
  1.120231929E-02  1.119144100E-02  1.115872213E-02  1.110579736E-02  1.103365712E-02
  1.094284467E-02  1.083504211E-02  1.071398457E-02  1.058480748E-02  1.045294573E-02
  1.032374275E-02  1.020256309E-02  1.009469845E-02  1.000492225E-02  9.936743410E-03
  9.891214505E-03  9.865764127E-03  9.854559891E-03  9.851381786E-03  9.853550983E-03
  9.863786071E-03  9.888342607E-03  9.933080205E-03  1.000058945E-02  1.008983351E-02
  9.970844129E-03  1.009063576E-02  1.023115923E-02  1.038438741E-02  1.054288105E-02
  1.069897759E-02  1.084439207E-02  1.097159818E-02  1.107592653E-02  1.115581125E-02
  1.121067604E-02  1.123908883E-02  1.123942247E-02  1.121165522E-02  1.115738497E-02
  1.107804313E-02  1.097422023E-02  1.084748430E-02  1.070248285E-02  1.054670916E-02
  1.038842312E-02  1.023527501E-02  1.009469845E-02  9.974718924E-03  9.883436292E-03
  9.826734036E-03  9.805065376E-03  9.811036460E-03  9.829998625E-03  9.845009597E-03
  9.844606976E-03  9.828809288E-03  9.809114560E-03  9.802494132E-03  9.823614481E-03
  9.879879157E-03  9.808214020E-03  9.880739965E-03  1.000220778E-02  1.015674860E-02
  1.033058208E-02  1.051215972E-02  1.069041845E-02  1.085438295E-02  1.099499691E-02
  1.110697517E-02  1.118829149E-02  1.123796823E-02  1.125486295E-02  1.123835144E-02
  1.118903297E-02  1.110804478E-02  1.099637817E-02  1.085607214E-02  1.069240706E-02
  1.051441958E-02  1.033306397E-02  1.015938700E-02  1.000492225E-02  9.883436292E-03
  9.810791598E-03  9.800484711E-03  9.855738207E-03  9.962299487E-03  1.008727392E-02
  1.018745104E-02  1.022556581E-02  1.018685915E-02  1.008612425E-02  9.960657440E-03
  9.853690137E-03  9.798124339E-03  9.888013219E-03  9.799057800E-03  9.825364390E-03
  9.935489542E-03  1.009801654E-02  1.028843888E-02  1.048854411E-02  1.068343847E-02
  1.086022053E-02  1.100873722E-02  1.112260992E-02  1.119899369E-02  1.123719500E-02
  1.123724462E-02  1.119913851E-02  1.112284469E-02  1.100906812E-02  1.086066856E-02
  1.068402999E-02  1.048929912E-02  1.028936683E-02  1.009911595E-02  9.936743410E-03
  9.826734036E-03  9.800484711E-03  9.889427991E-03  1.010961379E-02  1.044376726E-02
  1.083161148E-02  1.117835757E-02  1.138405158E-02  1.138385493E-02  1.117778373E-02
  1.083070854E-02  1.044260942E-02  1.010828639E-02  1.061642466E-02  1.010929352E-02
  9.855589078E-03  9.805113850E-03  9.891461353E-03  1.005653969E-02  1.025921752E-02
  1.047271988E-02  1.067865069E-02  1.086263673E-02  1.101305439E-02  1.112214825E-02
  1.118705613E-02  1.120836921E-02  1.118687149E-02  1.112179300E-02  1.101255897E-02
  1.086204702E-02  1.067802115E-02  1.047210621E-02  1.025867459E-02  1.005612145E-02
  9.891214505E-03  9.805065376E-03  9.855738207E-03  1.010961379E-02  1.061686906E-02
  1.137632743E-02  1.230456639E-02  1.322848853E-02  1.392008463E-02  1.417769726E-02
  1.391988149E-02  1.322811549E-02  1.230408741E-02  1.137582501E-02  1.282489453E-02
  1.137688636E-02  1.044464271E-02  9.963495404E-03  9.812520304E-03  9.867469005E-03
  1.003157562E-02  1.024262518E-02  1.046489516E-02  1.067692198E-02  1.086249157E-02
  1.100813132E-02  1.110559523E-02  1.115335866E-02  1.115312880E-02  1.110492248E-02
  1.100706326E-02  1.086109832E-02  1.067528526E-02  1.046310071E-02  1.024076260E-02
  1.002974153E-02  9.865764127E-03  9.811036460E-03  9.962299487E-03  1.044376726E-02
  1.137632743E-02  1.282461202E-02  1.473153554E-02  1.685532811E-02  1.875358545E-02
  1.989243290E-02  1.989240527E-02  1.875352393E-02  1.685529314E-02  1.473161387E-02
  1.823259881E-02  1.473268788E-02  1.230620043E-02  1.083372395E-02  1.008980928E-02
  9.832855874E-03  9.857605990E-03  1.002049970E-02  1.023750948E-02  1.046506057E-02
  1.067867639E-02  1.085979102E-02  1.099379586E-02  1.107365246E-02  1.109957688E-02
  1.107294618E-02  1.099243105E-02  1.085785274E-02  1.067627112E-02  1.046230354E-02
  1.023452143E-02  1.001741128E-02  9.854559891E-03  9.829998625E-03  1.008727392E-02
  1.083161148E-02  1.230456639E-02  1.473153554E-02  1.823187938E-02  2.264843550E-02
  2.731653042E-02  3.101832953E-02  3.244539060E-02  3.101837308E-02  2.731668614E-02
  2.264881449E-02  3.101671556E-02  2.264983509E-02  1.685739156E-02  1.323121600E-02
  1.118168358E-02  1.019125125E-02  9.849116139E-03  9.855604995E-03  1.002095181E-02
  1.024325355E-02  1.047322395E-02  1.068350183E-02  1.085368450E-02  1.096983087E-02
  1.102720969E-02  1.102674004E-02  1.096845114E-02  1.085147667E-02  1.068058588E-02
  1.046974100E-02  1.023935577E-02  1.001680235E-02  9.851381786E-03  9.845009597E-03
  1.018745104E-02  1.117835757E-02  1.322848853E-02  1.685532811E-02  2.264843550E-02
  3.101591012E-02  4.148446237E-02  5.187763904E-02  5.856881873E-02  5.856882449E-02
  5.187772964E-02  4.148481460E-02  6.238396347E-02  4.148566580E-02  2.731862089E-02
  1.875656468E-02  1.392387615E-02  1.138851656E-02  1.023051184E-02  9.849806720E-03
  9.858766557E-03  1.003293877E-02  1.026048453E-02  1.048939619E-02  1.069052916E-02
  1.084344727E-02  1.093655687E-02  1.096708707E-02  1.093542658E-02  1.084124764E-02
  1.068737479E-02  1.048544135E-02  1.025590821E-02  1.002793666E-02  9.853550983E-03
  9.844606976E-03  1.022556581E-02  1.138405158E-02  1.392008463E-02  1.875358545E-02
  2.731653042E-02  4.148446237E-02  6.238352522E-02  8.771337505E-02  1.098372346E-01
  1.187941251E-01  1.098370701E-01  8.771332554E-02  1.396675209E-01  8.771377066E-02
  5.187922463E-02  3.102112111E-02  1.989631339E-02  1.418249684E-02  1.138936097E-02
  1.019281560E-02  9.834934156E-03  9.869796559E-03  1.005881375E-02  1.029033490E-02
  1.051334568E-02  1.069913295E-02  1.082928350E-02  1.089498453E-02  1.089432966E-02
  1.082734985E-02  1.069601275E-02  1.050918728E-02  1.028533010E-02  1.005318395E-02
  9.863786071E-03  9.828809288E-03  1.018685915E-02  1.138385493E-02  1.417769726E-02
  1.989243290E-02  3.101832953E-02  5.187763904E-02  8.771337505E-02  1.396680215E-01
  1.969498569E-01  2.361377932E-01  2.361374302E-01  1.969490785E-01  3.135642711E-01
  1.969486599E-01  1.098375782E-01  5.857084922E-02  3.244892182E-02  1.989717575E-02
  1.392563061E-02  1.118422941E-02  1.009294836E-02  9.815982259E-03  9.894930402E-03
  1.010115562E-02  1.033305136E-02  1.054435473E-02  1.070910505E-02  1.081195946E-02
  1.084623788E-02  1.081051029E-02  1.070626909E-02  1.054025883E-02  1.032788169E-02
  1.009514402E-02  9.888342607E-03  9.809114560E-03  1.008612425E-02  1.117778373E-02
  1.391988149E-02  1.989240527E-02  3.244539060E-02  5.856881873E-02  1.098372346E-01
  1.969498569E-01  3.135662475E-01  4.217522396E-01  4.667911925E-01  4.217507408E-01
  6.375677980E-01  4.217487472E-01  2.361360049E-01  1.187946448E-01  5.857146977E-02
  3.102271975E-02  1.875918669E-02  1.323475929E-02  1.083798492E-02  9.968187777E-03
  9.809898229E-03  9.940006757E-03  1.016064501E-02  1.038733069E-02  1.058112550E-02
  1.072003853E-02  1.079164373E-02  1.079085245E-02  1.071769666E-02  1.057733187E-02
  1.038225212E-02  1.015450704E-02  9.933080205E-03  9.802494132E-03  9.960657440E-03
  1.083070854E-02  1.322811549E-02  1.875352393E-02  3.101837308E-02  5.856882449E-02
  1.187941251E-01  2.361377932E-01  4.217522396E-01  6.375713155E-01  7.893597095E-01
  7.893582199E-01  1.095735340E+00  7.893538957E-01  4.667866040E-01  2.361356481E-01
  1.098382067E-01  5.188122222E-02  2.732193887E-02  1.686185105E-02  1.231155813E-02
  1.045058245E-02  9.861737445E-03  9.831329539E-03  1.000761338E-02  1.023566145E-02
  1.045073358E-02  1.062174116E-02  1.073057521E-02  1.076731402E-02  1.072889438E-02
  1.061844894E-02  1.044597138E-02  1.022963738E-02  1.000058945E-02  9.823614481E-03
  9.853690137E-03  1.044260942E-02  1.230408741E-02  1.685529314E-02  2.731668614E-02
  5.187772964E-02  1.098370701E-01  2.361374302E-01  4.667911925E-01  7.893597095E-01
  1.095739476E+00  1.224578246E+00  1.533303087E+00  1.224571333E+00  7.893510587E-01
  4.217462653E-01  1.969481872E-01  8.771555151E-02  4.148936000E-02  2.265503930E-02
  1.473904364E-02  1.138402133E-02  1.011679005E-02  9.806481910E-03  9.887682775E-03
  1.009673458E-02  1.032322134E-02  1.052031851E-02  1.066361700E-02  1.073841394E-02
  1.073752465E-02  1.066098641E-02  1.051605930E-02  1.031751847E-02  1.008983351E-02
  9.879879157E-03  9.798124339E-03  1.010828639E-02  1.137582501E-02  1.473161387E-02
  2.264881449E-02  4.148481460E-02  8.771332554E-02  1.969490785E-01  4.217507408E-01
  7.893582199E-01  1.224578246E+00  1.533305984E+00  9.510926776E-01  8.528393301E-01
  6.187139987E-01  3.709891016E-01  1.921461062E-01  9.259129286E-02  4.576013646E-02
  2.530043566E-02  1.635666985E-02  1.244247580E-02  1.089263071E-02  1.047427823E-02
  1.054980914E-02  1.080282655E-02  1.109244906E-02  1.135706070E-02  1.156455429E-02
  1.169545581E-02  1.173938095E-02  1.169327743E-02  1.156029959E-02  1.135092214E-02
  1.108469026E-02  1.079376634E-02  1.053981828E-02  1.046378468E-02  1.088211532E-02
  1.243244459E-02  1.634760959E-02  2.529279073E-02  4.575434901E-02  9.258785295E-02
  1.921454262E-01  3.709910605E-01  6.187173811E-01  8.528419458E-01  8.528393301E-01
  8.528380824E-01  6.878280558E-01  4.534913981E-01  2.524512675E-01  1.259288441E-01
  6.147433161E-02  3.230960572E-02  1.950481054E-02  1.382535213E-02  1.141163851E-02
  1.057924228E-02  1.048010960E-02  1.067542834E-02  1.095894394E-02  1.124121629E-02
  1.147986524E-02  1.165024111E-02  1.173794638E-02  1.173681279E-02  1.164689433E-02
  1.147445979E-02  1.123398862E-02  1.095019354E-02  1.066550866E-02  1.046942867E-02
  1.056826185E-02  1.140085920E-02  1.381528118E-02  1.949592632E-02  3.230235739E-02
  6.146918269E-02  1.259262509E-01  2.524514160E-01  4.534936954E-01  6.878308481E-01
  6.187139987E-01  6.878280558E-01  6.187125283E-01  4.534910559E-01  2.773489376E-01
  1.483743274E-01  7.486726139E-02  3.907335025E-02  2.276582671E-02  1.536676235E-02
  1.207094736E-02  1.078227686E-02  1.046883404E-02  1.058081269E-02  1.084384268E-02
  1.113490549E-02  1.139830262E-02  1.160349249E-02  1.173204350E-02  1.177491266E-02
  1.172972693E-02  1.159896567E-02  1.139176493E-02  1.112663103E-02  1.083416668E-02
  1.057012498E-02  1.045757416E-02  1.077092429E-02  1.206000333E-02  1.535672152E-02
  2.275715116E-02  3.906647396E-02  7.486259992E-02  1.483721723E-01  2.773491426E-01
  4.534926871E-01  3.709891016E-01  4.534913981E-01  4.534910559E-01  3.709885718E-01
  2.524515506E-01  1.483747737E-01  8.022524779E-02  4.335036913E-02  2.530777910E-02
  1.673697338E-02  1.273856478E-02  1.103944289E-02  1.050757254E-02  1.052132374E-02
  1.075130464E-02  1.104186518E-02  1.132285102E-02  1.155745496E-02  1.172293593E-02
  1.180713167E-02  1.180593879E-02  1.171941026E-02  1.155174950E-02  1.131520483E-02
  1.103258903E-02  1.074076949E-02  1.050994951E-02  1.049581558E-02  1.102778415E-02
  1.272749527E-02  1.672696851E-02  2.529927170E-02  4.334373906E-02  8.022078941E-02
  1.483725547E-01  2.524511760E-01  1.921461062E-01  2.524512675E-01  2.773489376E-01
  2.524515506E-01  1.921472034E-01  1.259303464E-01  7.486867452E-02  4.335124593E-02
  2.627892337E-02  1.755471773E-02  1.324216262E-02  1.127920309E-02  1.057318873E-02
  1.049364587E-02  1.068439636E-02  1.096635541E-02  1.125709141E-02  1.151458731E-02
  1.171219409E-02  1.183404227E-02  1.187414024E-02  1.183161632E-02  1.170744448E-02
  1.150771009E-02  1.124836407E-02  1.095612428E-02  1.067306184E-02  1.048164490E-02
  1.056098070E-02  1.126726233E-02  1.323096594E-02  1.754471408E-02  2.627049812E-02
  4.334469445E-02  7.486415204E-02  1.259277572E-01  9.259129286E-02  1.259288441E-01
  1.483743274E-01  1.483747737E-01  1.259303464E-01  9.259422095E-02  6.147731653E-02
  3.907603050E-02  2.530982221E-02  1.755584825E-02  1.343099507E-02  1.142481979E-02
  1.063305372E-02  1.048781885E-02  1.064299657E-02  1.091188554E-02  1.120509376E-02
  1.147787816E-02  1.170144254E-02  1.185636192E-02  1.193385800E-02  1.193261195E-02
  1.185267473E-02  1.169546293E-02  1.146984309E-02  1.119531688E-02  1.090074306E-02
  1.063090793E-02  1.047522727E-02  1.062041590E-02  1.141260152E-02  1.341965463E-02
  1.754579912E-02  2.530139387E-02  3.906943980E-02  6.147262775E-02  4.576013646E-02
  6.147433161E-02  7.486726139E-02  8.022524779E-02  7.486867452E-02  6.147731653E-02
  4.576489117E-02  3.231419103E-02  2.276996082E-02  1.674038215E-02  1.324460457E-02
  1.142610380E-02  1.065784136E-02  1.049044839E-02  1.062279665E-02  1.087891866E-02
  1.116958072E-02  1.145017249E-02  1.169223355E-02  1.187437304E-02  1.198455513E-02
  1.202023691E-02  1.198202385E-02  1.186940982E-02  1.168502990E-02  1.144100210E-02
  1.115878795E-02  1.086690211E-02  1.060998747E-02  1.047729256E-02  1.064479249E-02
  1.141361650E-02  1.323311213E-02  1.673026026E-02  2.276149640E-02  3.230756076E-02
  2.530043566E-02  3.230960572E-02  3.907335025E-02  4.335036913E-02  4.335124593E-02
  3.907603050E-02  3.231419103E-02  2.530698100E-02  1.951105880E-02  1.537245964E-02
  1.274345406E-02  1.128305711E-02  1.063570125E-02  1.049178778E-02  1.061787746E-02
  1.086463496E-02  1.115033428E-02  1.143281778E-02  1.168573303E-02  1.188803178E-02
  1.202532396E-02  1.209283026E-02  1.209153441E-02  1.202148542E-02  1.188179359E-02
  1.167732353E-02  1.142254174E-02  1.113856162E-02  1.085178224E-02  1.060438546E-02
  1.047810543E-02  1.062227762E-02  1.127033035E-02  1.273182999E-02  1.536228738E-02
  1.950261153E-02  1.635666985E-02  1.950481054E-02  2.276582671E-02  2.530777910E-02
  2.627892337E-02  2.530982221E-02  2.276996082E-02  1.951105880E-02  1.636495598E-02
  1.383326121E-02  1.207822386E-02  1.104583068E-02  1.057846839E-02  1.049183352E-02
  1.062546261E-02  1.086594070E-02  1.114517452E-02  1.142527769E-02  1.168238748E-02
  1.189732858E-02  1.205524597E-02  1.214912911E-02  1.217911468E-02  1.214650726E-02
  1.205009570E-02  1.188983014E-02  1.167280062E-02  1.141393504E-02  1.113246941E-02
  1.085230607E-02  1.061134815E-02  1.047768972E-02  1.056473571E-02  1.103292779E-02
  1.206653613E-02  1.382313181E-02  1.244247580E-02  1.382535213E-02  1.536676235E-02
  1.673697338E-02  1.755471773E-02  1.755584825E-02  1.674038215E-02  1.537245964E-02
  1.383326121E-02  1.245239331E-02  1.142111331E-02  1.079104673E-02  1.051538243E-02
  1.050028226E-02  1.064830988E-02  1.088283357E-02  1.115285154E-02  1.142646926E-02
  1.168206054E-02  1.190240457E-02  1.207372771E-02  1.218800624E-02  1.224373182E-02
  1.224239698E-02  1.218404689E-02  1.206727594E-02  1.189367333E-02  1.167133953E-02
  1.141411879E-02  1.113928697E-02  1.086850178E-02  1.063366694E-02  1.048577677E-02
  1.050144312E-02  1.077807639E-02  1.140949159E-02  1.089263071E-02  1.141163851E-02
  1.207094736E-02  1.273856478E-02  1.324216262E-02  1.343099507E-02  1.324460457E-02
  1.274345406E-02  1.207822386E-02  1.142111331E-02  1.090399292E-02  1.059010218E-02
  1.047892825E-02  1.053040147E-02  1.069224711E-02  1.091835887E-02  1.117460048E-02
  1.143639023E-02  1.168459865E-02  1.190340737E-02  1.208050210E-02  1.220826985E-02
  1.228402600E-02  1.230817208E-02  1.228133799E-02  1.220297951E-02  1.207277652E-02
  1.189349182E-02  1.167281393E-02  1.142312326E-02  1.116028483E-02  1.090345139E-02
  1.067720697E-02  1.051567236E-02  1.046492775E-02  1.057722651E-02  1.047427823E-02
  1.057924228E-02  1.078227686E-02  1.103944289E-02  1.127920309E-02  1.142481979E-02
  1.142610380E-02  1.128305711E-02  1.104583068E-02  1.079104673E-02  1.059010218E-02
  1.048684575E-02  1.049211988E-02  1.059200582E-02  1.076143452E-02  1.097521017E-02
  1.121251580E-02  1.145608031E-02  1.169013655E-02  1.190032721E-02  1.207549206E-02
  1.220902116E-02  1.229816869E-02  1.234215346E-02  1.234079426E-02  1.229413272E-02
  1.220243141E-02  1.206655008E-02  1.188931168E-02  1.167739828E-02  1.144202819E-02
  1.119759654E-02  1.095988743E-02  1.074616798E-02  1.057723235E-02  1.047824939E-02
  1.054980914E-02  1.048010960E-02  1.046883404E-02  1.050757254E-02  1.057318873E-02
  1.063305372E-02  1.065784136E-02  1.063570125E-02  1.057846839E-02  1.051538243E-02
  1.047892825E-02  1.049211988E-02  1.056331937E-02  1.068832557E-02  1.085587058E-02
  1.105277909E-02  1.126667402E-02  1.148596389E-02  1.169873882E-02  1.189297444E-02
  1.205874031E-02  1.219023900E-02  1.228523181E-02  1.234260328E-02  1.236104862E-02
  1.233989035E-02  1.227988637E-02  1.218241991E-02  1.204868348E-02  1.188099018E-02
  1.168520266E-02  1.147130075E-02  1.125134034E-02  1.103724311E-02  1.084058886E-02
  1.067372616E-02  1.080282655E-02  1.067542834E-02  1.058081269E-02  1.052132374E-02
  1.049364587E-02  1.048781885E-02  1.049044839E-02  1.049178778E-02  1.049183352E-02
  1.050028226E-02  1.053040147E-02  1.059200582E-02  1.068832557E-02  1.081700558E-02
  1.097244470E-02  1.114747099E-02  1.133423346E-02  1.152456383E-02  1.170984608E-02
  1.188112745E-02  1.203046136E-02  1.215277949E-02  1.224609568E-02  1.230949554E-02
  1.234135706E-02  1.234000344E-02  1.230547414E-02  1.223952374E-02  1.214385029E-02
  1.201944250E-02  1.186835527E-02  1.169571423E-02  1.150950889E-02  1.131871878E-02
  1.113196428E-02  1.095739292E-02  1.109244906E-02  1.095894394E-02  1.084384268E-02
  1.075130464E-02  1.068439636E-02  1.064299657E-02  1.062279665E-02  1.061787746E-02
  1.062546261E-02  1.064830988E-02  1.069224711E-02  1.076143452E-02  1.085587058E-02
  1.097244470E-02  1.110700728E-02  1.125501413E-02  1.141107744E-02  1.156895436E-02
  1.172219546E-02  1.186470759E-02  1.199118546E-02  1.209779471E-02  1.218255773E-02
  1.224453181E-02  1.228242272E-02  1.229445677E-02  1.227976578E-02  1.223929499E-02
  1.217489289E-02  1.208792634E-02  1.197940749E-02  1.185137588E-02  1.170771636E-02
  1.155377163E-02  1.139565439E-02  1.123980812E-02  1.135706070E-02  1.124121629E-02
  1.113490549E-02  1.104186518E-02  1.096635541E-02  1.091188554E-02  1.087891866E-02
  1.086463496E-02  1.086594070E-02  1.088283357E-02  1.091835887E-02  1.097521017E-02
  1.105277909E-02  1.114747099E-02  1.125501413E-02  1.137168440E-02  1.149362858E-02
  1.161612606E-02  1.173418675E-02  1.184369695E-02  1.194177661E-02  1.202637928E-02
  1.209596625E-02  1.214938738E-02  1.218560369E-02  1.220348562E-02  1.220218631E-02
  1.218174390E-02  1.214307947E-02  1.208739299E-02  1.201579133E-02  1.192948848E-02
  1.183007831E-02  1.171965046E-02  1.160111413E-02  1.147859228E-02  1.156455429E-02
  1.147986524E-02  1.139830262E-02  1.132285102E-02  1.125709141E-02  1.120509376E-02
  1.116958072E-02  1.115033428E-02  1.114517452E-02  1.115285154E-02  1.117460048E-02
  1.121251580E-02  1.126667402E-02  1.133423346E-02  1.141107744E-02  1.149362858E-02
  1.157890655E-02  1.166362204E-02  1.174418094E-02  1.181777916E-02  1.188310027E-02
  1.193976417E-02  1.198734561E-02  1.202505859E-02  1.205209756E-02  1.206795443E-02
  1.207241900E-02  1.206546282E-02  1.204718858E-02  1.201787554E-02  1.197809668E-02
  1.192872085E-02  1.187059227E-02  1.180418275E-02  1.172990506E-02  1.164909396E-02
  1.169545581E-02  1.165024111E-02  1.160349249E-02  1.155745496E-02  1.151458731E-02
  1.147787816E-02  1.145017249E-02  1.143281778E-02  1.142527769E-02  1.142646926E-02
  1.143639023E-02  1.145608031E-02  1.148596389E-02  1.152456383E-02  1.156895436E-02
  1.161612606E-02  1.166362204E-02  1.170919230E-02  1.175059991E-02  1.178621479E-02
  1.181565574E-02  1.183956857E-02  1.185875974E-02  1.187362231E-02  1.188423650E-02
  1.189070516E-02  1.189324815E-02  1.189206216E-02  1.188718385E-02  1.187848551E-02
  1.186580923E-02  1.184911224E-02  1.182837367E-02  1.180325072E-02  1.177297103E-02
  1.173690889E-02  1.173938095E-02  1.173794638E-02  1.173204350E-02  1.172293593E-02
  1.171219409E-02  1.170144254E-02  1.169223355E-02  1.168573303E-02  1.168238748E-02
  1.168206054E-02  1.168459865E-02  1.169013655E-02  1.169873882E-02  1.170984608E-02
  1.172219546E-02  1.173418675E-02  1.174418094E-02  1.175059991E-02  1.175217432E-02
  1.174841891E-02  1.173988739E-02  1.172790772E-02  1.171411745E-02  1.170022701E-02
  1.168790228E-02  1.167843542E-02  1.167237933E-02  1.166966433E-02  1.167017774E-02
  1.167410142E-02  1.168156549E-02  1.169207215E-02  1.170438587E-02  1.171689424E-02
  1.172792462E-02  1.173585900E-02  1.169327743E-02  1.173681279E-02  1.177491266E-02
  1.180713167E-02  1.183404227E-02  1.185636192E-02  1.187437304E-02  1.188803178E-02
  1.189732858E-02  1.190240457E-02  1.190340737E-02  1.190032721E-02  1.189297444E-02
  1.188112745E-02  1.186470759E-02  1.184369695E-02  1.181777916E-02  1.178621479E-02
  1.174841891E-02  1.170484039E-02  1.165717858E-02  1.160772816E-02  1.155879136E-02
  1.151288848E-02  1.147309588E-02  1.144237640E-02  1.142220013E-02  1.141212314E-02
  1.141111399E-02  1.141920649E-02  1.143749307E-02  1.146646848E-02  1.150471229E-02
  1.154931385E-02  1.159723968E-02  1.164599191E-02  1.156029959E-02  1.164689433E-02
  1.172972693E-02  1.180593879E-02  1.187414024E-02  1.193385800E-02  1.198455513E-02
  1.202532396E-02  1.205524597E-02  1.207372771E-02  1.208050210E-02  1.207549206E-02
[...]
  1.077943024E-02  1.368888621E-02  2.040101365E-02  3.575867299E-02  7.181046983E-02
  1.539073517E-01  3.186863181E-01  5.842056825E-01  4.289786270E-01  5.842023799E-01
  6.490930335E-01  5.842002652E-01  4.289759058E-01  2.632411333E-01  1.415329791E-01
  7.181369753E-02  3.758635825E-02  2.180588603E-02  1.453015434E-02  1.121224634E-02
  9.847358968E-03  9.436753006E-03  9.445363973E-03  9.607278367E-03  9.805884261E-03
  9.991169646E-03  1.013737308E-02  1.022942927E-02  1.026012484E-02  1.022762418E-02
  1.013383015E-02  9.986028921E-03  9.799355660E-03  9.599627146E-03  9.436899748E-03
  9.427833602E-03  9.838397218E-03  1.120369548E-02  1.452246354E-02  2.179945612E-02
  3.758154879E-02  7.181086555E-02  1.415324058E-01  2.632426946E-01  1.828954868E-01
  2.632417736E-01  3.186836239E-01  3.186832674E-01  2.632411333E-01  1.828954910E-01
  1.111760883E-01  6.292360394E-02  3.576487362E-02  2.180665845E-02  1.484123016E-02
  1.146236298E-02  9.976686148E-03  9.473764321E-03  9.432354485E-03  9.574660828E-03
  9.771530884E-03  9.966564915E-03  1.013081362E-02  1.024660664E-02  1.030518499E-02
  1.030426145E-02  1.024386980E-02  1.012636773E-02  9.960585404E-03  9.764253981E-03
  9.566368874E-03  9.423371033E-03  9.464459535E-03  9.967475764E-03  1.145368374E-02
  1.483349214E-02  2.180020186E-02  3.575996175E-02  6.292042226E-02  1.111746597E-01
  7.691142607E-02  1.111750354E-01  1.415326223E-01  1.539073844E-01  1.415329791E-01
  1.111760883E-01  7.691360879E-02  4.926915379E-02  3.107029806E-02  2.040985110E-02
  1.453187883E-02  1.146329232E-02  1.002588016E-02  9.498588410E-03  9.428480974E-03
  9.554399795E-03  9.746575723E-03  9.946541710E-03  1.012420889E-02  1.025987241E-02
  1.034248660E-02  1.036929962E-02  1.034061480E-02  1.025619809E-02  1.011887205E-02
  9.939747440E-03  9.738580506E-03  9.545500221E-03  9.419011751E-03  9.488923641E-03
  1.001642496E-02  1.145445559E-02  1.452402889E-02  2.040327291E-02  3.106517294E-02
  4.926554638E-02  3.576177506E-02  4.926655830E-02  6.292216243E-02  7.181324121E-02
  7.181369753E-02  6.292360394E-02  4.926915379E-02  3.576569098E-02  2.522276758E-02
  1.809358061E-02  1.370000320E-02  1.121500461E-02  9.978613011E-03  9.499571505E-03
  9.428528286E-03  9.545184028E-03  9.731555184E-03  9.931966105E-03  1.011767494E-02
  1.026866743E-02  1.037158607E-02  1.042204055E-02  1.042108552E-02  1.036875544E-02
  1.026406514E-02  1.011147196E-02  9.924390605E-03  9.722879785E-03  9.535717117E-03
  9.418610265E-03  9.489571101E-03  9.968917083E-03  1.120599425E-02  1.369201336E-02
  1.808685657E-02  2.521744023E-02  1.977007889E-02  2.521876524E-02  3.106767562E-02
  3.576358002E-02  3.758635825E-02  3.576487362E-02  3.107029806E-02  2.522276758E-02
  1.977549610E-02  1.551877453E-02  1.258662538E-02  1.079237422E-02  9.851142552E-03
  9.476672699E-03  9.430423665E-03  9.546135838E-03  9.727067931E-03  9.924434254E-03
  1.011262654E-02  1.027331569E-02  1.039222766E-02  1.046258775E-02  1.048489188E-02
  1.046066234E-02  1.038844491E-02  1.026781048E-02  1.010559471E-02  9.916122218E-03
  9.717761666E-03  9.536151785E-03  9.420101831E-03  9.466371873E-03  9.841232822E-03
  1.078321599E-02  1.257853002E-02  1.551196237E-02  1.320939626E-02  1.551344475E-02
  1.808974745E-02  2.040754025E-02  2.180588603E-02  2.180665845E-02  2.040985110E-02
  1.809358061E-02  1.551877453E-02  1.321616940E-02  1.146165755E-02  1.031147778E-02
  9.685223394E-03  9.441475850E-03  9.436156908E-03  9.557211562E-03  9.733364216E-03
  9.925287135E-03  1.011113516E-02  1.027528124E-02  1.040456937E-02  1.049075467E-02
  1.053240529E-02  1.053142966E-02  1.048786113E-02  1.039985698E-02  1.026891118E-02
  1.010332365E-02  9.916296023E-03  9.723490121E-03  9.546774859E-03  9.425494369E-03
  9.430938410E-03  9.675170439E-03  1.030225466E-02  1.145355661E-02  1.052016407E-02
  1.145510002E-02  1.258159616E-02  1.369659305E-02  1.453015434E-02  1.484123016E-02
  1.453187883E-02  1.370000320E-02  1.258662538E-02  1.146165755E-02  1.052811809E-02
  9.883727475E-03  9.530907591E-03  9.412265447E-03  9.450883829E-03  9.579216111E-03
  9.750113106E-03  9.934485058E-03  1.011418086E-02  1.027597874E-02  1.040901581E-02
  1.050558615E-02  1.056263354E-02  1.058071814E-02  1.056067992E-02  1.050174379E-02
  1.040341164E-02  1.026879665E-02  1.010565500E-02  9.924890580E-03  9.739754079E-03
  9.568414414E-03  9.439974550E-03  9.401596674E-03  9.520831846E-03  9.874575440E-03
  9.572850277E-03  9.876106019E-03  1.030533916E-02  1.078786765E-02  1.121224634E-02
  1.146236298E-02  1.146329232E-02  1.121500461E-02  1.079237422E-02  1.031147778E-02
  9.883727475E-03  9.581758427E-03  9.428418796E-03  9.406776576E-03  9.480688870E-03
  9.613417464E-03  9.776660563E-03  9.950621512E-03  1.012071436E-02  1.027537595E-02
  1.040576377E-02  1.050607875E-02  1.057335937E-02  1.060658350E-02  1.060560154E-02
  1.057044558E-02  1.050132741E-02  1.039932673E-02  1.026745739E-02  1.011156413E-02
  9.940525039E-03  9.765926557E-03  9.602369527E-03  9.469663974E-03  9.396122940E-03
  9.418481175E-03  9.387701792E-03  9.419945042E-03  9.523815029E-03  9.679705956E-03
  9.847358968E-03  9.976686148E-03  1.002588016E-02  9.978613011E-03  9.851142552E-03
  9.685223394E-03  9.530907591E-03  9.428418796E-03  9.397315903E-03  9.436146815E-03
  9.530138132E-03  9.660892194E-03  9.812440969E-03  9.972062748E-03  1.012861702E-02
  1.027200495E-02  1.039456461E-02  1.049221177E-02  1.056338102E-02  1.060683546E-02
  1.062094552E-02  1.060488929E-02  1.055955121E-02  1.048661916E-02  1.038738297E-02
  1.026345578E-02  1.011896248E-02  9.961595153E-03  9.801472438E-03  9.649749823E-03
  9.519162828E-03  9.425685696E-03  9.492457241E-03  9.427049421E-03  9.398925698E-03
  9.405884669E-03  9.436753006E-03  9.473764321E-03  9.498588410E-03  9.499571505E-03
  9.476672699E-03  9.441475850E-03  9.412265447E-03  9.406776576E-03  9.436146815E-03
  9.502530933E-03  9.600700253E-03  9.721868163E-03  9.857015939E-03  9.997921018E-03
  1.013645002E-02  1.026437168E-02  1.037497829E-02  1.046495397E-02  1.053387550E-02
  1.058146988E-02  1.060585451E-02  1.060489029E-02  1.057860810E-02  1.052920619E-02
  1.045862065E-02  1.036717268E-02  1.025532874E-02  1.012644067E-02  9.987242342E-03
  9.845983436E-03  9.710812971E-03  9.589965377E-03  9.680228505E-03  9.591211683E-03
  9.521741416E-03  9.473628151E-03  9.445363973E-03  9.432354485E-03  9.428480974E-03
  9.428528286E-03  9.430423665E-03  9.436156908E-03  9.450883829E-03  9.480688870E-03
  9.530138132E-03  9.600700253E-03  9.690517998E-03  9.795311440E-03  9.909673127E-03
  1.002790003E-02  1.014407750E-02  1.025213618E-02  1.034682942E-02  1.042523995E-02
  1.048704118E-02  1.053266855E-02  1.056119370E-02  1.057046023E-02  1.055931719E-02
  1.052897435E-02  1.048164231E-02  1.041829779E-02  1.033854952E-02  1.024276381E-02
  1.013389018E-02  1.001719824E-02  9.898774376E-03  9.784547788E-03  9.868585359E-03
  9.785671280E-03  9.713148895E-03  9.653354716E-03  9.607278367E-03  9.574660828E-03
  9.554399795E-03  9.545184028E-03  9.546135838E-03  9.557211562E-03  9.579216111E-03
  9.613417464E-03  9.660892194E-03  9.721868163E-03  9.795311440E-03  9.878842698E-03
  9.968945175E-03  1.006138629E-02  1.015173051E-02  1.023583684E-02  1.031036051E-02
  1.037324441E-02  1.042385717E-02  1.046236570E-02  1.048864479E-02  1.050180121E-02
  1.050089153E-02  1.048594392E-02  1.045795570E-02  1.041786879E-02  1.036585271E-02
  1.030178217E-02  1.022632563E-02  1.014156836E-02  1.005087379E-02  9.958397090E-03
  1.002241701E-02  9.959402899E-03  9.900868888E-03  9.849221890E-03  9.805884261E-03
  9.771530884E-03  9.746575723E-03  9.731555184E-03  9.727067931E-03  9.733364216E-03
  9.750113106E-03  9.776660563E-03  9.812440969E-03  9.857015939E-03  9.909673127E-03
  9.968945175E-03  1.003239302E-02  1.009680606E-02  1.015882698E-02  1.021575298E-02
  1.026599277E-02  1.030884919E-02  1.034393913E-02  1.037088733E-02  1.038949879E-02
  1.039998987E-02  1.040282592E-02  1.039826234E-02  1.038609556E-02  1.036590856E-02
  1.033752909E-02  1.030119403E-02  1.025731848E-02  1.020631883E-02  1.014891422E-02
  1.008670903E-02  1.012231431E-02  1.008761206E-02  1.005274694E-02  1.002008776E-02
  9.991169646E-03  9.966564915E-03  9.946541710E-03  9.931966105E-03  9.924434254E-03
  9.925287135E-03  9.934485058E-03  9.950621512E-03  9.972062748E-03  9.997921018E-03
  1.002790003E-02  1.006138629E-02  1.009680606E-02  1.013177198E-02  1.016383914E-02
  1.019139856E-02  1.021415249E-02  1.023273043E-02  1.024766079E-02  1.025870674E-02
  1.026537371E-02  1.026804152E-02  1.026823071E-02  1.026741648E-02  1.026562285E-02
  1.026142130E-02  1.025333485E-02  1.024102457E-02  1.022502474E-02  1.020560855E-02
  1.018227439E-02  1.015440750E-02  1.015644981E-02  1.015522958E-02  1.015060220E-02
  1.014415022E-02  1.013737308E-02  1.013081362E-02  1.012420889E-02  1.011767494E-02
  1.011262654E-02  1.011113516E-02  1.011418086E-02  1.012071436E-02  1.012861702E-02
  1.013645002E-02  1.014407750E-02  1.015173051E-02  1.015882698E-02  1.016383914E-02
  1.016517629E-02  1.016219028E-02  1.015558181E-02  1.014699002E-02  1.013798522E-02
  1.012918806E-02  1.012040534E-02  1.011180942E-02  1.010486689E-02  1.010170648E-02
  1.010336901E-02  1.010885722E-02  1.011608476E-02  1.012362486E-02  1.013134260E-02
  1.013946662E-02  1.014740627E-02  1.015361057E-02  1.012066551E-02  1.015437640E-02
  1.018382291E-02  1.020865235E-02  1.022942927E-02  1.024660664E-02  1.025987241E-02
  1.026866743E-02  1.027331569E-02  1.027528124E-02  1.027597874E-02  1.027537595E-02
  1.027200495E-02  1.026437168E-02  1.025213618E-02  1.023583684E-02  1.021575298E-02
  1.019139856E-02  1.016219028E-02  1.012847735E-02  1.009192282E-02  1.005502294E-02
  1.002020883E-02  9.989089448E-03  9.962308626E-03  9.940192575E-03  9.923656118E-03
  9.914347321E-03  9.913667017E-03  9.921634864E-03  9.936889908E-03  9.957823362E-03
  9.983556080E-03  1.001379349E-02  1.004792024E-02  1.008435013E-02  1.001918522E-02
  1.008508471E-02  1.014886415E-02  1.020776227E-02  1.026012484E-02  1.030518499E-02
  1.034248660E-02  1.037158607E-02  1.039222766E-02  1.040456937E-02  1.040901581E-02
  1.040576377E-02  1.039456461E-02  1.037497829E-02  1.034682942E-02  1.031036051E-02
  1.026599277E-02  1.021415249E-02  1.015558181E-02  1.009192282E-02  1.002593376E-02
  9.961026110E-03  9.900456165E-03  9.846696276E-03  9.801237180E-03  9.764812222E-03
  9.737882345E-03  9.721030282E-03  9.714909672E-03  9.719831706E-03  9.735520610E-03
  9.761360678E-03  9.796805252E-03  9.841422443E-03  9.894502325E-03  9.954575187E-03
  9.863908373E-03  9.955303308E-03  1.004933673E-02  1.014151235E-02  1.022762418E-02
  1.030426145E-02  1.036929962E-02  1.042204055E-02  1.046258775E-02  1.049075467E-02
  1.050558615E-02  1.050607875E-02  1.049221177E-02  1.046495397E-02  1.042523995E-02
  1.037324441E-02  1.030884919E-02  1.023273043E-02  1.014699002E-02  1.005502294E-02
  9.961026110E-03  9.869490947E-03  9.784697584E-03  9.710196055E-03  9.648384741E-03
  9.600309849E-03  9.565757755E-03  9.543667161E-03  9.532774163E-03  9.532257569E-03
  9.542132535E-03  9.563254055E-03  9.596922823E-03  9.644230409E-03  9.705410073E-03
  9.779430637E-03  9.674313784E-03  9.780176300E-03  9.895926327E-03  1.001580441E-02
  1.013383015E-02  1.024386980E-02  1.034061480E-02  1.042108552E-02  1.048489188E-02
  1.053240529E-02  1.056263354E-02  1.057335937E-02  1.056338102E-02  1.053387550E-02
  1.048704118E-02  1.042385717E-02  1.034393913E-02  1.024766079E-02  1.013798522E-02
  1.002020883E-02  9.900456165E-03  9.784697584E-03  9.678684580E-03  9.587859321E-03
  9.516520236E-03  9.466531042E-03  9.436427183E-03  9.421649806E-03  9.416117846E-03
  9.414662727E-03  9.415266341E-03  9.419974503E-03  9.433990233E-03  9.463427831E-03
  9.512866554E-03  9.583780373E-03  9.485568560E-03  9.584564450E-03  9.706886981E-03
  9.843470085E-03  9.986028921E-03  1.012636773E-02  1.025619809E-02  1.036875544E-02
  1.046066234E-02  1.053142966E-02  1.058071814E-02  1.060658350E-02  1.060683546E-02
  1.058146988E-02  1.053266855E-02  1.046236570E-02  1.037088733E-02  1.025870674E-02
  1.012918806E-02  9.989089448E-03  9.846696276E-03  9.710196055E-03  9.587859321E-03
  9.488741300E-03  9.421649692E-03  9.391818109E-03  9.397086566E-03  9.426311364E-03
  9.461751932E-03  9.485109966E-03  9.484774400E-03  9.460757088E-03  9.424698073E-03
  9.394929364E-03  9.389215663E-03  9.418708459E-03  9.380151123E-03  9.419544989E-03
  9.514432104E-03  9.646377272E-03  9.799355660E-03  9.960585404E-03  1.011887205E-02
  1.026406514E-02  1.038844491E-02  1.048786113E-02  1.056067992E-02  1.060560154E-02
  1.062094552E-02  1.060585451E-02  1.056119370E-02  1.048864479E-02  1.038949879E-02
  1.026537371E-02  1.012040534E-02  9.962308626E-03  9.801237180E-03  9.648384741E-03
  9.516520236E-03  9.421649692E-03  9.382195698E-03  9.412938348E-03  9.515317670E-03
  9.669752401E-03  9.835995992E-03  9.963973051E-03  1.001189978E-02  9.963488078E-03
  9.835050821E-03  9.668402582E-03  9.513645563E-03  9.411036054E-03  9.565003834E-03
  9.411928675E-03  9.390889348E-03  9.465718380E-03  9.599627146E-03  9.764253981E-03
  9.939747440E-03  1.011147196E-02  1.026781048E-02  1.039985698E-02  1.050174379E-02
  1.057044558E-02  1.060488929E-02  1.060489029E-02  1.057046023E-02  1.050180121E-02
  1.039998987E-02  1.026804152E-02  1.011180942E-02  9.940192575E-03  9.764812222E-03
  9.600309849E-03  9.466531042E-03  9.391818109E-03  9.412938348E-03  9.566044419E-03
  9.868051629E-03  1.029607269E-02  1.077742560E-02  1.120065494E-02  1.144964529E-02
  1.144948883E-02  1.120019879E-02  1.077671175E-02  1.029517030E-02  9.867042319E-03
  1.051244559E-02  9.867981864E-03  9.515425771E-03  9.397383351E-03  9.436899748E-03
  9.566368874E-03  9.738580506E-03  9.924390605E-03  1.010559471E-02  1.026891118E-02
  1.040341164E-02  1.050132741E-02  1.055955121E-02  1.057860810E-02  1.055931719E-02
  1.050089153E-02  1.040282592E-02  1.026823071E-02  1.010486689E-02  9.923656118E-03
  9.737882345E-03  9.565757755E-03  9.436427183E-03  9.397086566E-03  9.515317670E-03
  9.868051629E-03  1.051266193E-02  1.144667234E-02  1.257228863E-02  1.368641967E-02
  1.451909235E-02  1.482923925E-02  1.451893731E-02  1.368614413E-02  1.257195650E-02
  1.144636201E-02  1.320226596E-02  1.144732515E-02  1.029703108E-02  9.671010622E-03
  9.427833602E-03  9.423371033E-03  9.545500221E-03  9.722879785E-03  9.916122218E-03
  1.010332365E-02  1.026879665E-02  1.039932673E-02  1.048661916E-02  1.052920619E-02
  1.052897435E-02  1.048594392E-02  1.039826234E-02  1.026741648E-02  1.010170648E-02
  9.914347321E-03  9.721030282E-03  9.543667161E-03  9.421649806E-03  9.426311364E-03
  9.669752401E-03  1.029607269E-02  1.144667234E-02  1.320189391E-02  1.550540229E-02
  1.808119880E-02  2.039844648E-02  2.179613667E-02  2.179611275E-02  2.039840189E-02
  1.808120501E-02  1.550555008E-02  1.976400578E-02  1.550649670E-02  1.257384401E-02
  1.077943024E-02  9.838397218E-03  9.464459535E-03  9.419011751E-03  9.535717117E-03
  9.717761666E-03  9.916296023E-03  1.010565500E-02  1.026745739E-02  1.038738297E-02
  1.045862065E-02  1.048164231E-02  1.045795570E-02  1.038609556E-02  1.026562285E-02
  1.010336901E-02  9.913667017E-03  9.714909672E-03  9.532774163E-03  9.416117846E-03
  9.461751932E-03  9.835995992E-03  1.077742560E-02  1.257228863E-02  1.550540229E-02
  1.976334013E-02  2.521195186E-02  3.106079277E-02  3.575648383E-02  3.757877129E-02
  3.575648359E-02  3.106088364E-02  2.521226876E-02  3.575728204E-02  2.521312875E-02
  1.808302661E-02  1.368888621E-02  1.120369548E-02  9.967475764E-03  9.488923641E-03
  9.418610265E-03  9.536151785E-03  9.723490121E-03  9.924890580E-03  1.011156413E-02
  1.026345578E-02  1.036717268E-02  1.041829779E-02  1.041786879E-02  1.036590856E-02
  1.026142130E-02  1.010885722E-02  9.921634864E-03  9.719831706E-03  9.532257569E-03
  9.414662727E-03  9.485109966E-03  9.963973051E-03  1.120065494E-02  1.368641967E-02
  1.808119880E-02  2.521195186E-02  3.575669984E-02  4.926205505E-02  6.291815960E-02
  7.180934637E-02  7.180928753E-02  6.291808235E-02  4.926219114E-02  7.690926265E-02
  4.926281895E-02  3.106246645E-02  2.040101365E-02  1.452246354E-02  1.145368374E-02
  1.001642496E-02  9.489571101E-03  9.420101831E-03  9.546774859E-03  9.739754079E-03
  9.940525039E-03  1.011896248E-02  1.025532874E-02  1.033854952E-02  1.036585271E-02
  1.033752909E-02  1.025333485E-02  1.011608476E-02  9.936889908E-03  9.735520610E-03
  9.542132535E-03  9.415266341E-03  9.484774400E-03  1.001189978E-02  1.144964529E-02
  1.451909235E-02  2.039844648E-02  3.106079277E-02  4.926205505E-02  7.690927964E-02
  1.111744481E-01  1.415332533E-01  1.539082571E-01  1.415328394E-01  1.111739910E-01
  1.828967827E-01  1.111740663E-01  6.291906190E-02  3.575867299E-02  2.179945612E-02
  1.483349214E-02  1.145445559E-02  9.968917083E-03  9.466371873E-03  9.425494369E-03
  9.568414414E-03  9.765926557E-03  9.961595153E-03  1.012644067E-02  1.024276381E-02
  1.030178217E-02  1.030119403E-02  1.024102457E-02  1.012362486E-02  9.957823362E-03
  9.761360678E-03  9.563254055E-03  9.419974503E-03  9.460757088E-03  9.963488078E-03
  1.144948883E-02  1.482923925E-02  2.179613667E-02  3.575648383E-02  6.291815960E-02
  1.111744481E-01  1.828980807E-01  2.632472634E-01  3.186909324E-01  3.186903260E-01
  2.632458549E-01  4.289845922E-01  2.632447461E-01  1.415324649E-01  7.181046983E-02
  3.758154879E-02  2.180020186E-02  1.452402889E-02  1.120599425E-02  9.841232822E-03
  9.430938410E-03  9.439974550E-03  9.602369527E-03  9.801472438E-03  9.987242342E-03
  1.013389018E-02  1.022632563E-02  1.025731848E-02  1.022502474E-02  1.013134260E-02
  9.983556080E-03  9.796805252E-03  9.596922823E-03  9.433990233E-03  9.424698073E-03
  9.835050821E-03  1.120019879E-02  1.451893731E-02  2.179611275E-02  3.757877129E-02
  7.180934637E-02  1.415332533E-01  2.632472634E-01  4.289878327E-01  5.842156844E-01
  6.491079762E-01  5.842133877E-01  8.961401876E-01  5.842100971E-01  3.186872823E-01
  1.539073517E-01  7.181086555E-02  3.575996175E-02  2.040327291E-02  1.369201336E-02
  1.078321599E-02  9.675170439E-03  9.401596674E-03  9.469663974E-03  9.649749823E-03
  9.845983436E-03  1.001719824E-02  1.014156836E-02  1.020631883E-02  1.020560855E-02
  1.013946662E-02  1.001379349E-02  9.841422443E-03  9.644230409E-03  9.463427831E-03
  9.394929364E-03  9.668402582E-03  1.077671175E-02  1.368614413E-02  2.039840189E-02
  3.575648359E-02  7.180928753E-02  1.539082571E-01  3.186909324E-01  5.842156844E-01
  8.961454509E-01  1.116624423E+00  1.116622243E+00  1.563251751E+00  1.116615673E+00
  6.491005188E-01  3.186863181E-01  1.415324058E-01  6.292042226E-02  3.106517294E-02
  1.808685657E-02  1.257853002E-02  1.030225466E-02  9.520831846E-03  9.396122940E-03
  9.519162828E-03  9.710812971E-03  9.898774376E-03  1.005087379E-02  1.014891422E-02
  1.018227439E-02  1.014740627E-02  1.004792024E-02  9.894502325E-03  9.705410073E-03
  9.512866554E-03  9.389215663E-03  9.513645563E-03  1.029517030E-02  1.257195650E-02
  1.808120501E-02  3.106088364E-02  6.291808235E-02  1.415328394E-01  3.186903260E-01
  6.491079762E-01  1.116624423E+00  1.563257810E+00  1.751512588E+00  2.203310055E+00
  1.751502282E+00  1.116611191E+00  5.842056825E-01  2.632426946E-01  1.111746597E-01
  4.926554638E-02  2.521744023E-02  1.551196237E-02  1.145355661E-02  9.874575440E-03
  9.418481175E-03  9.425685696E-03  9.589965377E-03  9.784547788E-03  9.958397090E-03
  1.008670903E-02  1.015440750E-02  1.015361057E-02  1.008435013E-02  9.954575187E-03
  9.779430637E-03  9.583780373E-03  9.418708459E-03  9.411036054E-03  9.867042319E-03
  1.144636201E-02  1.550555008E-02  2.521226876E-02  4.926219114E-02  1.111739910E-01
  2.632458549E-01  5.842133877E-01  1.116622243E+00  1.751512588E+00  2.203314325E+00
