 CRYSTAL
 PRIMVEC
    3.082986431    0.000000000    0.000000000
   -1.541493215    2.669944569    0.000000000
    0.000000000    0.000000000    3.520770504
 PRIMCOORD
           3           1
Li        0.000000000    0.000000000    0.000000000
B         0.000000000    1.779963046    1.760385252
B         1.541493215    0.889981523    1.760385252
BEGIN_BLOCK_DATAGRID_3D
3D_PWSCF
BEGIN_DATAGRID_3D_UNKNOWN
          37          37          41
  0.000000  0.000000  0.000000
    3.082986    0.000000    0.000000
   -1.541493    2.669945    0.000000
    0.000000    0.000000    3.520771
  0.279701E+01  0.248993E+01  0.176289E+01  0.100610E+01  0.477642E+00  0.200836E+00
  0.827942E-01  0.376268E-01  0.203614E-01  0.133607E-01  0.104935E-01  0.946673E-02
  0.924446E-02  0.933001E-02  0.950592E-02  0.968608E-02  0.983456E-02  0.993178E-02
  0.996563E-02  0.993178E-02  0.983456E-02  0.968608E-02  0.950592E-02  0.933001E-02
  0.924446E-02  0.946673E-02  0.104935E-01  0.133607E-01  0.203614E-01  0.376268E-01
  0.827942E-01  0.200836E+00  0.477642E+00  0.100610E+01  0.176289E+01  0.248993E+01
  0.279701E+01  0.248993E+01  0.248993E+01  0.197667E+01  0.125605E+01  0.652984E+00
  0.290967E+00  0.120787E+00  0.523651E-01  0.262134E-01  0.158132E-01  0.114916E-01
  0.979865E-02  0.929031E-02  0.927198E-02  0.942170E-02  0.960650E-02  0.977361E-02
  0.989793E-02  0.996418E-02  0.996418E-02  0.989793E-02  0.977361E-02  0.960650E-02
  0.942170E-02  0.927198E-02  0.929031E-02  0.979865E-02  0.114916E-01  0.158132E-01
  0.262134E-01  0.523651E-01  0.120787E+00  0.290967E+00  0.652984E+00  0.125605E+01
  0.197667E+01  0.248993E+01  0.176289E+01  0.197667E+01  0.176289E+01  0.125605E+01
  0.726377E+00  0.353327E+00  0.154605E+00  0.673613E-01  0.325310E-01  0.185613E-01
  0.126901E-01  0.102610E-01  0.941004E-02  0.925235E-02  0.935775E-02  0.953805E-02
  0.971799E-02  0.986483E-02  0.996024E-02  0.999330E-02  0.996024E-02  0.986483E-02
  0.971799E-02  0.953805E-02  0.935775E-02  0.925235E-02  0.941004E-02  0.102610E-01
  0.126901E-01  0.185613E-01  0.325310E-01  0.673613E-01  0.154605E+00  0.353327E+00
  0.726377E+00  0.125605E+01  0.176289E+01  0.100610E+01  0.125605E+01  0.125605E+01
  0.100610E+01  0.652984E+00  0.353327E+00  0.168420E+00  0.771619E-01  0.376255E-01
  0.210401E-01  0.138749E-01  0.107764E-01  0.958194E-02  0.926775E-02  0.931505E-02
  0.948239E-02  0.966951E-02  0.983429E-02  0.995484E-02  0.100182E-01  0.100182E-01
  0.995484E-02  0.983429E-02  0.966951E-02  0.948239E-02  0.931505E-02  0.926775E-02
  0.958194E-02  0.107764E-01  0.138749E-01  0.210401E-01  0.376255E-01  0.771619E-01
  0.168420E+00  0.353327E+00  0.652984E+00  0.100610E+01  0.477642E+00  0.652984E+00
  0.726377E+00  0.652984E+00  0.477642E+00  0.290967E+00  0.154605E+00  0.771619E-01
  0.396072E-01  0.225384E-01  0.147603E-01  0.112274E-01  0.976307E-02  0.930553E-02
  0.929101E-02  0.943958E-02  0.962885E-02  0.980723E-02  0.994889E-02  0.100388E-01
  0.100694E-01  0.100388E-01  0.994889E-02  0.980723E-02  0.962885E-02  0.943958E-02
  0.929101E-02  0.930553E-02  0.976307E-02  0.112274E-01  0.147603E-01  0.225384E-01
  0.396072E-01  0.771619E-01  0.154605E+00  0.290967E+00  0.477642E+00  0.200836E+00
  0.290967E+00  0.353327E+00  0.353327E+00  0.290967E+00  0.200836E+00  0.120787E+00
  0.673613E-01  0.376255E-01  0.225384E-01  0.150902E-01  0.114922E-01  0.990101E-02
  0.934692E-02  0.928032E-02  0.940865E-02  0.959597E-02  0.978366E-02  0.994255E-02
  0.100552E-01  0.101127E-01  0.101127E-01  0.100552E-01  0.994255E-02  0.978366E-02
  0.959597E-02  0.940865E-02  0.928032E-02  0.934692E-02  0.990101E-02  0.114922E-01
  0.150902E-01  0.225384E-01  0.376255E-01  0.673613E-01  0.120787E+00  0.200836E+00
  0.827942E-01  0.120787E+00  0.154605E+00  0.168420E+00  0.154605E+00  0.120787E+00
  0.827942E-01  0.523651E-01  0.325310E-01  0.210401E-01  0.147603E-01  0.114922E-01
  0.995257E-02  0.937334E-02  0.927698E-02  0.938846E-02  0.957103E-02  0.976354E-02
  0.993538E-02  0.100670E-01  0.101476E-01  0.101744E-01  0.101476E-01  0.100670E-01
  0.993538E-02  0.976354E-02  0.957103E-02  0.938846E-02  0.927698E-02  0.937334E-02
  0.995257E-02  0.114922E-01  0.147603E-01  0.210401E-01  0.325310E-01  0.523651E-01
  0.827942E-01  0.376268E-01  0.523651E-01  0.673613E-01  0.771619E-01  0.771619E-01
  0.673613E-01  0.523651E-01  0.376268E-01  0.262134E-01  0.185613E-01  0.138749E-01
  0.112274E-01  0.990101E-02  0.937334E-02  0.927642E-02  0.937842E-02  0.955506E-02
  0.974796E-02  0.992764E-02  0.100741E-01  0.101742E-01  0.102238E-01  0.102238E-01
  0.101742E-01  0.100741E-01  0.992764E-02  0.974796E-02  0.955506E-02  0.937842E-02
  0.927642E-02  0.937334E-02  0.990101E-02  0.112274E-01  0.138749E-01  0.185613E-01
  0.262134E-01  0.376268E-01  0.203614E-01  0.262134E-01  0.325310E-01  0.376255E-01
  0.396072E-01  0.376255E-01  0.325310E-01  0.262134E-01  0.203614E-01  0.158132E-01
  0.126901E-01  0.107764E-01  0.976307E-02  0.934692E-02  0.927698E-02  0.937842E-02
  0.954950E-02  0.973918E-02  0.992118E-02  0.100771E-01  0.101928E-01  0.102615E-01
  0.102839E-01  0.102615E-01  0.101928E-01  0.100771E-01  0.992118E-02  0.973918E-02
  0.954950E-02  0.937842E-02  0.927698E-02  0.934692E-02  0.976307E-02  0.107764E-01
  0.126901E-01  0.158132E-01  0.203614E-01  0.133607E-01  0.158132E-01  0.185613E-01
  0.210401E-01  0.225384E-01  0.225384E-01  0.210401E-01  0.185613E-01  0.158132E-01
  0.133607E-01  0.114916E-01  0.102610E-01  0.958194E-02  0.930553E-02  0.928032E-02
  0.938846E-02  0.955506E-02  0.973918E-02  0.991861E-02  0.100778E-01  0.102036E-01
  0.102877E-01  0.103288E-01  0.103288E-01  0.102877E-01  0.102036E-01  0.100778E-01
  0.991861E-02  0.973918E-02  0.955506E-02  0.938846E-02  0.928032E-02  0.930553E-02
  0.958194E-02  0.102610E-01  0.114916E-01  0.133607E-01  0.104935E-01  0.114916E-01
  0.126901E-01  0.138749E-01  0.147603E-01  0.150902E-01  0.147603E-01  0.138749E-01
  0.126901E-01  0.114916E-01  0.104935E-01  0.979865E-02  0.941004E-02  0.926775E-02
  0.929101E-02  0.940865E-02  0.957103E-02  0.974796E-02  0.992118E-02  0.100778E-01
  0.102071E-01  0.103015E-01  0.103576E-01  0.103761E-01  0.103576E-01  0.103015E-01
  0.102071E-01  0.100778E-01  0.992118E-02  0.974796E-02  0.957103E-02  0.940865E-02
  0.929101E-02  0.926775E-02  0.941004E-02  0.979865E-02  0.104935E-01  0.946673E-02
  0.979865E-02  0.102610E-01  0.107764E-01  0.112274E-01  0.114922E-01  0.114922E-01
  0.112274E-01  0.107764E-01  0.102610E-01  0.979865E-02  0.946673E-02  0.929031E-02
  0.925235E-02  0.931505E-02  0.943958E-02  0.959597E-02  0.976354E-02  0.992764E-02
  0.100771E-01  0.102036E-01  0.103015E-01  0.103677E-01  0.104010E-01  0.104010E-01
  0.103677E-01  0.103015E-01  0.102036E-01  0.100771E-01  0.992764E-02  0.976354E-02
  0.959597E-02  0.943958E-02  0.931505E-02  0.925235E-02  0.929031E-02  0.946673E-02
  0.924446E-02  0.929031E-02  0.941004E-02  0.958194E-02  0.976307E-02  0.990101E-02
  0.995257E-02  0.990101E-02  0.976307E-02  0.958194E-02  0.941004E-02  0.929031E-02
  0.924446E-02  0.927198E-02  0.935775E-02  0.948239E-02  0.962885E-02  0.978366E-02
  0.993538E-02  0.100741E-01  0.101928E-01  0.102877E-01  0.103576E-01  0.104010E-01
  0.104157E-01  0.104010E-01  0.103576E-01  0.102877E-01  0.101928E-01  0.100741E-01
  0.993538E-02  0.978366E-02  0.962885E-02  0.948239E-02  0.935775E-02  0.927198E-02
  0.924446E-02  0.933001E-02  0.927198E-02  0.925235E-02  0.926775E-02  0.930553E-02
  0.934692E-02  0.937334E-02  0.937334E-02  0.934692E-02  0.930553E-02  0.926775E-02
  0.925235E-02  0.927198E-02  0.933001E-02  0.942170E-02  0.953805E-02  0.966951E-02
  0.980723E-02  0.994255E-02  0.100670E-01  0.101742E-01  0.102615E-01  0.103288E-01
  0.103761E-01  0.104010E-01  0.104010E-01  0.103761E-01  0.103288E-01  0.102615E-01
  0.101742E-01  0.100670E-01  0.994255E-02  0.980723E-02  0.966951E-02  0.953805E-02
  0.942170E-02  0.933001E-02  0.950592E-02  0.942170E-02  0.935775E-02  0.931505E-02
  0.929101E-02  0.928032E-02  0.927698E-02  0.927642E-02  0.927698E-02  0.928032E-02
  0.929101E-02  0.931505E-02  0.935775E-02  0.942170E-02  0.950592E-02  0.960650E-02
  0.971799E-02  0.983429E-02  0.994889E-02  0.100552E-01  0.101476E-01  0.102238E-01
  0.102839E-01  0.103288E-01  0.103576E-01  0.103677E-01  0.103576E-01  0.103288E-01
  0.102839E-01  0.102238E-01  0.101476E-01  0.100552E-01  0.994889E-02  0.983429E-02
  0.971799E-02  0.960650E-02  0.950592E-02  0.968608E-02  0.960650E-02  0.953805E-02
  0.948239E-02  0.943958E-02  0.940865E-02  0.938846E-02  0.937842E-02  0.937842E-02
  0.938846E-02  0.940865E-02  0.943958E-02  0.948239E-02  0.953805E-02  0.960650E-02
  0.968608E-02  0.977361E-02  0.986483E-02  0.995484E-02  0.100388E-01  0.101127E-01
  0.101744E-01  0.102238E-01  0.102615E-01  0.102877E-01  0.103015E-01  0.103015E-01
  0.102877E-01  0.102615E-01  0.102238E-01  0.101744E-01  0.101127E-01  0.100388E-01
  0.995484E-02  0.986483E-02  0.977361E-02  0.968608E-02  0.983456E-02  0.977361E-02
  0.971799E-02  0.966951E-02  0.962885E-02  0.959597E-02  0.957103E-02  0.955506E-02
  0.954950E-02  0.955506E-02  0.957103E-02  0.959597E-02  0.962885E-02  0.966951E-02
  0.971799E-02  0.977361E-02  0.983456E-02  0.989793E-02  0.996024E-02  0.100182E-01
  0.100694E-01  0.101127E-01  0.101476E-01  0.101742E-01  0.101928E-01  0.102036E-01
  0.102071E-01  0.102036E-01  0.101928E-01  0.101742E-01  0.101476E-01  0.101127E-01
  0.100694E-01  0.100182E-01  0.996024E-02  0.989793E-02  0.983456E-02  0.993178E-02
  0.989793E-02  0.986483E-02  0.983429E-02  0.980723E-02  0.978366E-02  0.976354E-02
  0.974796E-02  0.973918E-02  0.973918E-02  0.974796E-02  0.976354E-02  0.978366E-02
  0.980723E-02  0.983429E-02  0.986483E-02  0.989793E-02  0.993178E-02  0.996418E-02
  0.999330E-02  0.100182E-01  0.100388E-01  0.100552E-01  0.100670E-01  0.100741E-01
  0.100771E-01  0.100778E-01  0.100778E-01  0.100771E-01  0.100741E-01  0.100670E-01
  0.100552E-01  0.100388E-01  0.100182E-01  0.999330E-02  0.996418E-02  0.993178E-02
  0.996563E-02  0.996418E-02  0.996024E-02  0.995484E-02  0.994889E-02  0.994255E-02
  0.993538E-02  0.992764E-02  0.992118E-02  0.991861E-02  0.992118E-02  0.992764E-02
  0.993538E-02  0.994255E-02  0.994889E-02  0.995484E-02  0.996024E-02  0.996418E-02
  0.996563E-02  0.996418E-02  0.996024E-02  0.995484E-02  0.994889E-02  0.994255E-02
  0.993538E-02  0.992764E-02  0.992118E-02  0.991861E-02  0.992118E-02  0.992764E-02
  0.993538E-02  0.994255E-02  0.994889E-02  0.995484E-02  0.996024E-02  0.996418E-02
  0.996563E-02  0.993178E-02  0.996418E-02  0.999330E-02  0.100182E-01  0.100388E-01
  0.100552E-01  0.100670E-01  0.100741E-01  0.100771E-01  0.100778E-01  0.100778E-01
  0.100771E-01  0.100741E-01  0.100670E-01  0.100552E-01  0.100388E-01  0.100182E-01
  0.999330E-02  0.996418E-02  0.993178E-02  0.989793E-02  0.986483E-02  0.983429E-02
  0.980723E-02  0.978366E-02  0.976354E-02  0.974796E-02  0.973918E-02  0.973918E-02
  0.974796E-02  0.976354E-02  0.978366E-02  0.980723E-02  0.983429E-02  0.986483E-02
  0.989793E-02  0.993178E-02  0.983456E-02  0.989793E-02  0.996024E-02  0.100182E-01
  0.100694E-01  0.101127E-01  0.101476E-01  0.101742E-01  0.101928E-01  0.102036E-01
  0.102071E-01  0.102036E-01  0.101928E-01  0.101742E-01  0.101476E-01  0.101127E-01
  0.100694E-01  0.100182E-01  0.996024E-02  0.989793E-02  0.983456E-02  0.977361E-02
  0.971799E-02  0.966951E-02  0.962885E-02  0.959597E-02  0.957103E-02  0.955506E-02
  0.954950E-02  0.955506E-02  0.957103E-02  0.959597E-02  0.962885E-02  0.966951E-02
  0.971799E-02  0.977361E-02  0.983456E-02  0.968608E-02  0.977361E-02  0.986483E-02
  0.995484E-02  0.100388E-01  0.101127E-01  0.101744E-01  0.102238E-01  0.102615E-01
  0.102877E-01  0.103015E-01  0.103015E-01  0.102877E-01  0.102615E-01  0.102238E-01
  0.101744E-01  0.101127E-01  0.100388E-01  0.995484E-02  0.986483E-02  0.977361E-02
  0.968608E-02  0.960650E-02  0.953805E-02  0.948239E-02  0.943958E-02  0.940865E-02
  0.938846E-02  0.937842E-02  0.937842E-02  0.938846E-02  0.940865E-02  0.943958E-02
  0.948239E-02  0.953805E-02  0.960650E-02  0.968608E-02  0.950592E-02  0.960650E-02
  0.971799E-02  0.983429E-02  0.994889E-02  0.100552E-01  0.101476E-01  0.102238E-01
  0.102839E-01  0.103288E-01  0.103576E-01  0.103677E-01  0.103576E-01  0.103288E-01
  0.102839E-01  0.102238E-01  0.101476E-01  0.100552E-01  0.994889E-02  0.983429E-02
  0.971799E-02  0.960650E-02  0.950592E-02  0.942170E-02  0.935775E-02  0.931505E-02
  0.929101E-02  0.928032E-02  0.927698E-02  0.927642E-02  0.927698E-02  0.928032E-02
  0.929101E-02  0.931505E-02  0.935775E-02  0.942170E-02  0.950592E-02  0.933001E-02
  0.942170E-02  0.953805E-02  0.966951E-02  0.980723E-02  0.994255E-02  0.100670E-01
  0.101742E-01  0.102615E-01  0.103288E-01  0.103761E-01  0.104010E-01  0.104010E-01
  0.103761E-01  0.103288E-01  0.102615E-01  0.101742E-01  0.100670E-01  0.994255E-02
  0.980723E-02  0.966951E-02  0.953805E-02  0.942170E-02  0.933001E-02  0.927198E-02
  0.925235E-02  0.926775E-02  0.930553E-02  0.934692E-02  0.937334E-02  0.937334E-02
  0.934692E-02  0.930553E-02  0.926775E-02  0.925235E-02  0.927198E-02  0.933001E-02
  0.924446E-02  0.927198E-02  0.935775E-02  0.948239E-02  0.962885E-02  0.978366E-02
  0.993538E-02  0.100741E-01  0.101928E-01  0.102877E-01  0.103576E-01  0.104010E-01
  0.104157E-01  0.104010E-01  0.103576E-01  0.102877E-01  0.101928E-01  0.100741E-01
  0.993538E-02  0.978366E-02  0.962885E-02  0.948239E-02  0.935775E-02  0.927198E-02
  0.924446E-02  0.929031E-02  0.941004E-02  0.958194E-02  0.976307E-02  0.990101E-02
  0.995257E-02  0.990101E-02  0.976307E-02  0.958194E-02  0.941004E-02  0.929031E-02
  0.924446E-02  0.946673E-02  0.929031E-02  0.925235E-02  0.931505E-02  0.943958E-02
  0.959597E-02  0.976354E-02  0.992764E-02  0.100771E-01  0.102036E-01  0.103015E-01
  0.103677E-01  0.104010E-01  0.104010E-01  0.103677E-01  0.103015E-01  0.102036E-01
  0.100771E-01  0.992764E-02  0.976354E-02  0.959597E-02  0.943958E-02  0.931505E-02
  0.925235E-02  0.929031E-02  0.946673E-02  0.979865E-02  0.102610E-01  0.107764E-01
  0.112274E-01  0.114922E-01  0.114922E-01  0.112274E-01  0.107764E-01  0.102610E-01
  0.979865E-02  0.946673E-02  0.104935E-01  0.979865E-02  0.941004E-02  0.926775E-02
  0.929101E-02  0.940865E-02  0.957103E-02  0.974796E-02  0.992118E-02  0.100778E-01
  0.102071E-01  0.103015E-01  0.103576E-01  0.103761E-01  0.103576E-01  0.103015E-01
  0.102071E-01  0.100778E-01  0.992118E-02  0.974796E-02  0.957103E-02  0.940865E-02
  0.929101E-02  0.926775E-02  0.941004E-02  0.979865E-02  0.104935E-01  0.114916E-01
  0.126901E-01  0.138749E-01  0.147603E-01  0.150902E-01  0.147603E-01  0.138749E-01
  0.126901E-01  0.114916E-01  0.104935E-01  0.133607E-01  0.114916E-01  0.102610E-01
  0.958194E-02  0.930553E-02  0.928032E-02  0.938846E-02  0.955506E-02  0.973918E-02
  0.991861E-02  0.100778E-01  0.102036E-01  0.102877E-01  0.103288E-01  0.103288E-01
  0.102877E-01  0.102036E-01  0.100778E-01  0.991861E-02  0.973918E-02  0.955506E-02
  0.938846E-02  0.928032E-02  0.930553E-02  0.958194E-02  0.102610E-01  0.114916E-01
  0.133607E-01  0.158132E-01  0.185613E-01  0.210401E-01  0.225384E-01  0.225384E-01
  0.210401E-01  0.185613E-01  0.158132E-01  0.133607E-01  0.203614E-01  0.158132E-01
  0.126901E-01  0.107764E-01  0.976307E-02  0.934692E-02  0.927698E-02  0.937842E-02
  0.954950E-02  0.973918E-02  0.992118E-02  0.100771E-01  0.101928E-01  0.102615E-01
  0.102839E-01  0.102615E-01  0.101928E-01  0.100771E-01  0.992118E-02  0.973918E-02
  0.954950E-02  0.937842E-02  0.927698E-02  0.934692E-02  0.976307E-02  0.107764E-01
  0.126901E-01  0.158132E-01  0.203614E-01  0.262134E-01  0.325310E-01  0.376255E-01
  0.396072E-01  0.376255E-01  0.325310E-01  0.262134E-01  0.203614E-01  0.376268E-01
  0.262134E-01  0.185613E-01  0.138749E-01  0.112274E-01  0.990101E-02  0.937334E-02
  0.927642E-02  0.937842E-02  0.955506E-02  0.974796E-02  0.992764E-02  0.100741E-01
  0.101742E-01  0.102238E-01  0.102238E-01  0.101742E-01  0.100741E-01  0.992764E-02
  0.974796E-02  0.955506E-02  0.937842E-02  0.927642E-02  0.937334E-02  0.990101E-02
  0.112274E-01  0.138749E-01  0.185613E-01  0.262134E-01  0.376268E-01  0.523651E-01
  0.673613E-01  0.771619E-01  0.771619E-01  0.673613E-01  0.523651E-01  0.376268E-01
  0.827942E-01  0.523651E-01  0.325310E-01  0.210401E-01  0.147603E-01  0.114922E-01
  0.995257E-02  0.937334E-02  0.927698E-02  0.938846E-02  0.957103E-02  0.976354E-02
  0.993538E-02  0.100670E-01  0.101476E-01  0.101744E-01  0.101476E-01  0.100670E-01
  0.993538E-02  0.976354E-02  0.957103E-02  0.938846E-02  0.927698E-02  0.937334E-02
  0.995257E-02  0.114922E-01  0.147603E-01  0.210401E-01  0.325310E-01  0.523651E-01
  0.827942E-01  0.120787E+00  0.154605E+00  0.168420E+00  0.154605E+00  0.120787E+00
  0.827942E-01  0.200836E+00  0.120787E+00  0.673613E-01  0.376255E-01  0.225384E-01
  0.150902E-01  0.114922E-01  0.990101E-02  0.934692E-02  0.928032E-02  0.940865E-02
  0.959597E-02  0.978366E-02  0.994255E-02  0.100552E-01  0.101127E-01  0.101127E-01
  0.100552E-01  0.994255E-02  0.978366E-02  0.959597E-02  0.940865E-02  0.928032E-02
  0.934692E-02  0.990101E-02  0.114922E-01  0.150902E-01  0.225384E-01  0.376255E-01
  0.673613E-01  0.120787E+00  0.200836E+00  0.290967E+00  0.353327E+00  0.353327E+00
  0.290967E+00  0.200836E+00  0.477642E+00  0.290967E+00  0.154605E+00  0.771619E-01
  0.396072E-01  0.225384E-01  0.147603E-01  0.112274E-01  0.976307E-02  0.930553E-02
  0.929101E-02  0.943958E-02  0.962885E-02  0.980723E-02  0.994889E-02  0.100388E-01
  0.100694E-01  0.100388E-01  0.994889E-02  0.980723E-02  0.962885E-02  0.943958E-02
  0.929101E-02  0.930553E-02  0.976307E-02  0.112274E-01  0.147603E-01  0.225384E-01
  0.396072E-01  0.771619E-01  0.154605E+00  0.290967E+00  0.477642E+00  0.652984E+00
  0.726377E+00  0.652984E+00  0.477642E+00  0.100610E+01  0.652984E+00  0.353327E+00
  0.168420E+00  0.771619E-01  0.376255E-01  0.210401E-01  0.138749E-01  0.107764E-01
  0.958194E-02  0.926775E-02  0.931505E-02  0.948239E-02  0.966951E-02  0.983429E-02
  0.995484E-02  0.100182E-01  0.100182E-01  0.995484E-02  0.983429E-02  0.966951E-02
  0.948239E-02  0.931505E-02  0.926775E-02  0.958194E-02  0.107764E-01  0.138749E-01
  0.210401E-01  0.376255E-01  0.771619E-01  0.168420E+00  0.353327E+00  0.652984E+00
  0.100610E+01  0.125605E+01  0.125605E+01  0.100610E+01  0.176289E+01  0.125605E+01
  0.726377E+00  0.353327E+00  0.154605E+00  0.673613E-01  0.325310E-01  0.185613E-01
  0.126901E-01  0.102610E-01  0.941004E-02  0.925235E-02  0.935775E-02  0.953805E-02
  0.971799E-02  0.986483E-02  0.996024E-02  0.999330E-02  0.996024E-02  0.986483E-02
  0.971799E-02  0.953805E-02  0.935775E-02  0.925235E-02  0.941004E-02  0.102610E-01
  0.126901E-01  0.185613E-01  0.325310E-01  0.673613E-01  0.154605E+00  0.353327E+00
  0.726377E+00  0.125605E+01  0.176289E+01  0.197667E+01  0.176289E+01  0.248993E+01
  0.197667E+01  0.125605E+01  0.652984E+00  0.290967E+00  0.120787E+00  0.523651E-01
  0.262134E-01  0.158132E-01  0.114916E-01  0.979865E-02  0.929031E-02  0.927198E-02
  0.942170E-02  0.960650E-02  0.977361E-02  0.989793E-02  0.996418E-02  0.996418E-02
  0.989793E-02  0.977361E-02  0.960650E-02  0.942170E-02  0.927198E-02  0.929031E-02
  0.979865E-02  0.114916E-01  0.158132E-01  0.262134E-01  0.523651E-01  0.120787E+00
  0.290967E+00  0.652984E+00  0.125605E+01  0.197667E+01  0.248993E+01  0.248993E+01
  0.279701E+01  0.248993E+01  0.176289E+01  0.100610E+01  0.477642E+00  0.200836E+00
  0.827942E-01  0.376268E-01  0.203614E-01  0.133607E-01  0.104935E-01  0.946673E-02
  0.924446E-02  0.933001E-02  0.950592E-02  0.968608E-02  0.983456E-02  0.993178E-02
  0.996563E-02  0.993178E-02  0.983456E-02  0.968608E-02  0.950592E-02  0.933001E-02
  0.924446E-02  0.946673E-02  0.104935E-01  0.133607E-01  0.203614E-01  0.376268E-01
  0.827942E-01  0.200836E+00  0.477642E+00  0.100610E+01  0.176289E+01  0.248993E+01
  0.279701E+01  0.247353E+01  0.220331E+01  0.156325E+01  0.896135E+00  0.428982E+00
  0.182896E+00  0.769106E-01  0.357600E-01  0.197677E-01  0.132068E-01  0.105175E-01
  0.957042E-02  0.938570E-02  0.949105E-02  0.967955E-02  0.986872E-02  0.100234E-01
  0.101242E-01  0.101592E-01  0.101242E-01  0.100234E-01  0.986872E-02  0.967955E-02
  0.949105E-02  0.938570E-02  0.957042E-02  0.105175E-01  0.132068E-01  0.197677E-01
  0.357600E-01  0.769106E-01  0.182896E+00  0.428982E+00  0.896135E+00  0.156325E+01
  0.220331E+01  0.247353E+01  0.220331E+01  0.220331E+01  0.175150E+01  0.111661E+01
  0.584208E+00  0.263244E+00  0.111175E+00  0.492646E-01  0.252159E-01  0.155101E-01
  0.114516E-01  0.987275E-02  0.941696E-02  0.942463E-02  0.958951E-02  0.978480E-02
  0.995944E-02  0.100886E-01  0.101571E-01  0.101571E-01  0.100886E-01  0.995944E-02
  0.978480E-02  0.958951E-02  0.942463E-02  0.941696E-02  0.987275E-02  0.114516E-01
  0.155101E-01  0.252159E-01  0.492646E-01  0.111175E+00  0.263244E+00  0.584208E+00
  0.111661E+01  0.175150E+01  0.220331E+01  0.156325E+01  0.175150E+01  0.156325E+01
  0.111661E+01  0.649100E+00  0.318687E+00  0.141533E+00  0.629201E-01  0.310644E-01
  0.180858E-01  0.125773E-01  0.103011E-01  0.951983E-02  0.939546E-02  0.951898E-02
  0.971122E-02  0.989987E-02  0.100527E-01  0.101515E-01  0.101857E-01  0.101515E-01
  0.100527E-01  0.989987E-02  0.971122E-02  0.951898E-02  0.939546E-02  0.951983E-02
  0.103011E-01  0.125773E-01  0.180858E-01  0.310644E-01  0.629201E-01  0.141533E+00
  0.318687E+00  0.649100E+00  0.111661E+01  0.156325E+01  0.896135E+00  0.111661E+01
  0.111661E+01  0.896135E+00  0.584208E+00  0.318687E+00  0.153908E+00  0.718110E-01
  0.357599E-01  0.204030E-01  0.136915E-01  0.107827E-01  0.967472E-02  0.940136E-02
  0.946978E-02  0.965033E-02  0.984714E-02  0.100190E-01  0.101441E-01  0.102095E-01
  0.102095E-01  0.101441E-01  0.100190E-01  0.984714E-02  0.965033E-02  0.946978E-02
  0.940136E-02  0.967472E-02  0.107827E-01  0.136915E-01  0.204030E-01  0.357599E-01
  0.718110E-01  0.153908E+00  0.318687E+00  0.584208E+00  0.896135E+00  0.428982E+00
  0.584208E+00  0.649100E+00  0.584208E+00  0.428982E+00  0.263244E+00  0.141533E+00
  0.718110E-01  0.375821E-01  0.218006E-01  0.145243E-01  0.112062E-01  0.984137E-02
  0.943117E-02  0.944043E-02  0.960316E-02  0.980270E-02  0.998901E-02  0.101363E-01
  0.102293E-01  0.102610E-01  0.102293E-01  0.101363E-01  0.998901E-02  0.980270E-02
  0.960316E-02  0.944043E-02  0.943117E-02  0.984137E-02  0.112062E-01  0.145243E-01
  0.218006E-01  0.375821E-01  0.718110E-01  0.141533E+00  0.263244E+00  0.428982E+00
  0.182896E+00  0.263244E+00  0.318687E+00  0.318687E+00  0.263244E+00  0.182896E+00
  0.111175E+00  0.629201E-01  0.357599E-01  0.218006E-01  0.148345E-01  0.114553E-01
  0.996971E-02  0.946714E-02  0.942634E-02  0.956945E-02  0.976727E-02  0.996333E-02
  0.101287E-01  0.102455E-01  0.103051E-01  0.103051E-01  0.102455E-01  0.101287E-01
  0.996333E-02  0.976727E-02  0.956945E-02  0.942634E-02  0.946714E-02  0.996971E-02
  0.114553E-01  0.148345E-01  0.218006E-01  0.357599E-01  0.629201E-01  0.111175E+00
  0.182896E+00  0.769106E-01  0.111175E+00  0.141533E+00  0.153908E+00  0.141533E+00
  0.111175E+00  0.769106E-01  0.492646E-01  0.310644E-01  0.204030E-01  0.145243E-01
  0.114553E-01  0.100179E-01  0.949093E-02  0.942141E-02  0.954812E-02  0.974125E-02
  0.994226E-02  0.101210E-01  0.102578E-01  0.103415E-01  0.103693E-01  0.103415E-01
  0.102578E-01  0.101210E-01  0.994226E-02  0.974125E-02  0.954812E-02  0.942141E-02
  0.949093E-02  0.100179E-01  0.114553E-01  0.145243E-01  0.204030E-01  0.310644E-01
  0.492646E-01  0.769106E-01  0.357600E-01  0.492646E-01  0.629201E-01  0.718110E-01
  0.718110E-01  0.629201E-01  0.492646E-01  0.357600E-01  0.252159E-01  0.180858E-01
  0.136915E-01  0.112062E-01  0.996971E-02  0.949093E-02  0.942044E-02  0.953788E-02
  0.972520E-02  0.992669E-02  0.101135E-01  0.102657E-01  0.103697E-01  0.104213E-01
  0.104213E-01  0.103697E-01  0.102657E-01  0.101135E-01  0.992669E-02  0.972520E-02
  0.953788E-02  0.942044E-02  0.949093E-02  0.996971E-02  0.112062E-01  0.136915E-01
  0.180858E-01  0.252159E-01  0.357600E-01  0.197677E-01  0.252159E-01  0.310644E-01
  0.357599E-01  0.375821E-01  0.357599E-01  0.310644E-01  0.252159E-01  0.197677E-01
  0.155101E-01  0.125773E-01  0.107827E-01  0.984137E-02  0.946714E-02  0.942141E-02
  0.953788E-02  0.971976E-02  0.991821E-02  0.101076E-01  0.102695E-01  0.103896E-01
  0.104610E-01  0.104844E-01  0.104610E-01  0.103896E-01  0.102695E-01  0.101076E-01
  0.991821E-02  0.971976E-02  0.953788E-02  0.942141E-02  0.946714E-02  0.984137E-02
  0.107827E-01  0.125773E-01  0.155101E-01  0.197677E-01  0.132068E-01  0.155101E-01
  0.180858E-01  0.204030E-01  0.218006E-01  0.218006E-01  0.204030E-01  0.180858E-01
  0.155101E-01  0.132068E-01  0.114516E-01  0.103011E-01  0.967472E-02  0.943117E-02
  0.942634E-02  0.954812E-02  0.972520E-02  0.991821E-02  0.101052E-01  0.102706E-01
  0.104012E-01  0.104885E-01  0.105313E-01  0.105313E-01  0.104885E-01  0.104012E-01
  0.102706E-01  0.101052E-01  0.991821E-02  0.972520E-02  0.954812E-02  0.942634E-02
  0.943117E-02  0.967472E-02  0.103011E-01  0.114516E-01  0.132068E-01  0.105175E-01
  0.114516E-01  0.125773E-01  0.136915E-01  0.145243E-01  0.148345E-01  0.145243E-01
  0.136915E-01  0.125773E-01  0.114516E-01  0.105175E-01  0.987275E-02  0.951983E-02
  0.940136E-02  0.944043E-02  0.956945E-02  0.974125E-02  0.992669E-02  0.101076E-01
  0.102706E-01  0.104049E-01  0.105028E-01  0.105610E-01  0.105801E-01  0.105610E-01
  0.105028E-01  0.104049E-01  0.102706E-01  0.101076E-01  0.992669E-02  0.974125E-02
  0.956945E-02  0.944043E-02  0.940136E-02  0.951983E-02  0.987275E-02  0.105175E-01
  0.957042E-02  0.987275E-02  0.103011E-01  0.107827E-01  0.112062E-01  0.114553E-01
  0.114553E-01  0.112062E-01  0.107827E-01  0.103011E-01  0.987275E-02  0.957042E-02
  0.941696E-02  0.939546E-02  0.946978E-02  0.960316E-02  0.976727E-02  0.994226E-02
  0.101135E-01  0.102695E-01  0.104012E-01  0.105028E-01  0.105713E-01  0.106056E-01
  0.106056E-01  0.105713E-01  0.105028E-01  0.104012E-01  0.102695E-01  0.101135E-01
  0.994226E-02  0.976727E-02  0.960316E-02  0.946978E-02  0.939546E-02  0.941696E-02
  0.957042E-02  0.938570E-02  0.941696E-02  0.951983E-02  0.967472E-02  0.984137E-02
  0.996971E-02  0.100179E-01  0.996971E-02  0.984137E-02  0.967472E-02  0.951983E-02
  0.941696E-02  0.938570E-02  0.942463E-02  0.951898E-02  0.965033E-02  0.980270E-02
  0.996333E-02  0.101210E-01  0.102657E-01  0.103896E-01  0.104885E-01  0.105610E-01
  0.106056E-01  0.106208E-01  0.106056E-01  0.105610E-01  0.104885E-01  0.103896E-01
  0.102657E-01  0.101210E-01  0.996333E-02  0.980270E-02  0.965033E-02  0.951898E-02
  0.942463E-02  0.938570E-02  0.949105E-02  0.942463E-02  0.939546E-02  0.940136E-02
  0.943117E-02  0.946714E-02  0.949093E-02  0.949093E-02  0.946714E-02  0.943117E-02
  0.940136E-02  0.939546E-02  0.942463E-02  0.949105E-02  0.958951E-02  0.971122E-02
  0.984714E-02  0.998901E-02  0.101287E-01  0.102578E-01  0.103697E-01  0.104610E-01
  0.105313E-01  0.105801E-01  0.106056E-01  0.106056E-01  0.105801E-01  0.105313E-01
  0.104610E-01  0.103697E-01  0.102578E-01  0.101287E-01  0.998901E-02  0.984714E-02
  0.971122E-02  0.958951E-02  0.949105E-02  0.967955E-02  0.958951E-02  0.951898E-02
  0.946978E-02  0.944043E-02  0.942634E-02  0.942141E-02  0.942044E-02  0.942141E-02
  0.942634E-02  0.944043E-02  0.946978E-02  0.951898E-02  0.958951E-02  0.967955E-02
  0.978480E-02  0.989987E-02  0.100190E-01  0.101363E-01  0.102455E-01  0.103415E-01
  0.104213E-01  0.104844E-01  0.105313E-01  0.105610E-01  0.105713E-01  0.105610E-01
  0.105313E-01  0.104844E-01  0.104213E-01  0.103415E-01  0.102455E-01  0.101363E-01
  0.100190E-01  0.989987E-02  0.978480E-02  0.967955E-02  0.986872E-02  0.978480E-02
  0.971122E-02  0.965033E-02  0.960316E-02  0.956945E-02  0.954812E-02  0.953788E-02
  0.953788E-02  0.954812E-02  0.956945E-02  0.960316E-02  0.965033E-02  0.971122E-02
  0.978480E-02  0.986872E-02  0.995944E-02  0.100527E-01  0.101441E-01  0.102293E-01
  0.103051E-01  0.103693E-01  0.104213E-01  0.104610E-01  0.104885E-01  0.105028E-01
  0.105028E-01  0.104885E-01  0.104610E-01  0.104213E-01  0.103693E-01  0.103051E-01
  0.102293E-01  0.101441E-01  0.100527E-01  0.995944E-02  0.986872E-02  0.100234E-01
  0.995944E-02  0.989987E-02  0.984714E-02  0.980270E-02  0.976727E-02  0.974125E-02
  0.972520E-02  0.971976E-02  0.972520E-02  0.974125E-02  0.976727E-02  0.980270E-02
  0.984714E-02  0.989987E-02  0.995944E-02  0.100234E-01  0.100886E-01  0.101515E-01
  0.102095E-01  0.102610E-01  0.103051E-01  0.103415E-01  0.103697E-01  0.103896E-01
  0.104012E-01  0.104049E-01  0.104012E-01  0.103896E-01  0.103697E-01  0.103415E-01
  0.103051E-01  0.102610E-01  0.102095E-01  0.101515E-01  0.100886E-01  0.100234E-01
  0.101242E-01  0.100886E-01  0.100527E-01  0.100190E-01  0.998901E-02  0.996333E-02
  0.994226E-02  0.992669E-02  0.991821E-02  0.991821E-02  0.992669E-02  0.994226E-02
  0.996333E-02  0.998901E-02  0.100190E-01  0.100527E-01  0.100886E-01  0.101242E-01
  0.101571E-01  0.101857E-01  0.102095E-01  0.102293E-01  0.102455E-01  0.102578E-01
  0.102657E-01  0.102695E-01  0.102706E-01  0.102706E-01  0.102695E-01  0.102657E-01
  0.102578E-01  0.102455E-01  0.102293E-01  0.102095E-01  0.101857E-01  0.101571E-01
  0.101242E-01  0.101592E-01  0.101571E-01  0.101515E-01  0.101441E-01  0.101363E-01
  0.101287E-01  0.101210E-01  0.101135E-01  0.101076E-01  0.101052E-01  0.101076E-01
  0.101135E-01  0.101210E-01  0.101287E-01  0.101363E-01  0.101441E-01  0.101515E-01
  0.101571E-01  0.101592E-01  0.101571E-01  0.101515E-01  0.101441E-01  0.101363E-01
  0.101287E-01  0.101210E-01  0.101135E-01  0.101076E-01  0.101052E-01  0.101076E-01
  0.101135E-01  0.101210E-01  0.101287E-01  0.101363E-01  0.101441E-01  0.101515E-01
  0.101571E-01  0.101592E-01  0.101242E-01  0.101571E-01  0.101857E-01  0.102095E-01