
     Program PWSCF v.7.3 starts on 14Dec2024 at 23:31:45 

     This program is part of the open-source Quantum ESPRESSO suite
     for quantum simulation of materials; please cite
         "P. Giannozzi et al., J. Phys.:Condens. Matter 21 395502 (2009);
         "P. Giannozzi et al., J. Phys.:Condens. Matter 29 465901 (2017);
         "P. Giannozzi et al., J. Chem. Phys. 152 154105 (2020);
          URL http://www.quantum-espresso.org", 
     in publications or presentations arising from this work. More details at
     http://www.quantum-espresso.org/quote

     Serial version
     4817 MiB available memory on the printing compute node when the environment starts

     Waiting for input...
     Reading input from standard input

     Current dimensions of program PWSCF are:
     Max number of different atomic species (ntypx) = 10
     Max number of k-points (npk) =  40000
     Max angular momentum in pseudopotentials (lmaxx) =  4
     Message from routine iosys:
     BEWARE:  force calculation with tetrahedra (not recommanded)
     Message from routine iosys:
     BEWARE: stress calculation with tetrahedra (not recommanded)


     G-vector sticks info
     --------------------
     sticks:   dense  smooth     PW     G-vecs:    dense   smooth      PW
     Sum         685     685    211                17341    17341    2835

     Using Slab Decomposition



     bravais-lattice index     =            4
     lattice parameter (alat)  =       5.6185  a.u.
     unit-cell volume          =     178.7906 (a.u.)^3
     number of atoms/cell      =            3
     number of atomic types    =            2
     number of electrons       =         9.00
     number of Kohn-Sham states=            9
     kinetic-energy cutoff     =      80.0000  Ry
     charge density cutoff     =     320.0000  Ry
     scf convergence threshold =      1.0E-06
     mixing beta               =       0.7000
     number of iterations used =            8  plain     mixing
     Exchange-correlation= PBE
                           (   1   4   3   4   0   0   0)

     celldm(1)=   5.618500  celldm(2)=   0.000000  celldm(3)=   1.164000
     celldm(4)=   0.000000  celldm(5)=   0.000000  celldm(6)=   0.000000

     crystal axes: (cart. coord. in units of alat)
               a(1) = (   1.000000   0.000000   0.000000 )  
               a(2) = (  -0.500000   0.866025   0.000000 )  
               a(3) = (   0.000000   0.000000   1.164000 )  

     reciprocal axes: (cart. coord. in units 2 pi/alat)
               b(1) = (  1.000000  0.577350 -0.000000 )  
               b(2) = (  0.000000  1.154701  0.000000 )  
               b(3) = (  0.000000 -0.000000  0.859107 )  


     PseudoPot. # 1 for Li read from file:
     ./PSEUDO/Li_ONCV_PBE_sr.upf
     MD5 check sum: 50ff420e78310ffa21704f3361e624a4
     Pseudo is Norm-conserving, Zval =  3.0
     Generated using ONCVPSP code by D. R. Hamann
     Using radial grid of 1944 points,  4 beta functions with: 
                l(1) =   0
                l(2) =   0
                l(3) =   1
                l(4) =   1

     PseudoPot. # 2 for B  read from file:
     ./PSEUDO/B_ONCV_PBE_sr.upf
     MD5 check sum: 12e13f68e8dc593c0a1d43390bab284b
     Pseudo is Norm-conserving + core correction, Zval =  3.0
     Generated using ONCVPSP code by D. R. Hamann
     Using radial grid of 1534 points,  4 beta functions with: 
                l(1) =   0
                l(2) =   0
                l(3) =   1
                l(4) =   1

     atomic species   valence    mass     pseudopotential
     Li                3.00     6.94000     Li( 1.00)
     B                 3.00    10.81000     B ( 1.00)

     24 Sym. Ops., with inversion, found



   Cartesian axes

     site n.     atom                  positions (alat units)
         1        Li     tau(   1) = (   0.0000000   0.0000000   0.0000000  )
         2        B      tau(   2) = (   0.0000000   0.5773503   0.5820000  )
         3        B      tau(   3) = (   0.5000000   0.2886751   0.5820000  )

     number of k points=    50 (tetrahedron method)
                       cart. coord. in units 2pi/alat
        k(    1) = (   0.0000000   0.0000000   0.0000000), wk =   0.0039062
        k(    2) = (   0.0000000   0.0000000   0.1073883), wk =   0.0078125
        k(    3) = (   0.0000000   0.0000000   0.2147766), wk =   0.0078125
        k(    4) = (   0.0000000   0.0000000   0.3221649), wk =   0.0078125
        k(    5) = (   0.0000000   0.0000000  -0.4295533), wk =   0.0039062
        k(    6) = (   0.0000000   0.1443376   0.0000000), wk =   0.0234375
        k(    7) = (   0.0000000   0.1443376   0.1073883), wk =   0.0468750
        k(    8) = (   0.0000000   0.1443376   0.2147766), wk =   0.0468750
        k(    9) = (   0.0000000   0.1443376   0.3221649), wk =   0.0468750
        k(   10) = (   0.0000000   0.1443376  -0.4295533), wk =   0.0234375
        k(   11) = (   0.0000000   0.2886751   0.0000000), wk =   0.0234375
        k(   12) = (   0.0000000   0.2886751   0.1073883), wk =   0.0468750
        k(   13) = (   0.0000000   0.2886751   0.2147766), wk =   0.0468750
        k(   14) = (   0.0000000   0.2886751   0.3221649), wk =   0.0468750
        k(   15) = (   0.0000000   0.2886751  -0.4295533), wk =   0.0234375
        k(   16) = (   0.0000000   0.4330127   0.0000000), wk =   0.0234375
        k(   17) = (   0.0000000   0.4330127   0.1073883), wk =   0.0468750
        k(   18) = (   0.0000000   0.4330127   0.2147766), wk =   0.0468750
        k(   19) = (   0.0000000   0.4330127   0.3221649), wk =   0.0468750
        k(   20) = (   0.0000000   0.4330127  -0.4295533), wk =   0.0234375
        k(   21) = (   0.0000000  -0.5773503   0.0000000), wk =   0.0117188
        k(   22) = (   0.0000000  -0.5773503   0.1073883), wk =   0.0234375
        k(   23) = (   0.0000000  -0.5773503   0.2147766), wk =   0.0234375
        k(   24) = (   0.0000000  -0.5773503   0.3221649), wk =   0.0234375
        k(   25) = (   0.0000000  -0.5773503  -0.4295533), wk =   0.0117188
        k(   26) = (   0.1250000   0.2165064   0.0000000), wk =   0.0234375
        k(   27) = (   0.1250000   0.2165064   0.1073883), wk =   0.0468750
        k(   28) = (   0.1250000   0.2165064   0.2147766), wk =   0.0468750
        k(   29) = (   0.1250000   0.2165064   0.3221649), wk =   0.0468750
        k(   30) = (   0.1250000   0.2165064  -0.4295533), wk =   0.0234375
        k(   31) = (   0.1250000   0.3608439   0.0000000), wk =   0.0468750
        k(   32) = (   0.1250000   0.3608439   0.1073883), wk =   0.0937500
        k(   33) = (   0.1250000   0.3608439   0.2147766), wk =   0.0937500
        k(   34) = (   0.1250000   0.3608439   0.3221649), wk =   0.0937500
        k(   35) = (   0.1250000   0.3608439  -0.4295533), wk =   0.0468750
        k(   36) = (   0.1250000   0.5051815   0.0000000), wk =   0.0468750
        k(   37) = (   0.1250000   0.5051815   0.1073883), wk =   0.0937500
        k(   38) = (   0.1250000   0.5051815   0.2147766), wk =   0.0937500
        k(   39) = (   0.1250000   0.5051815   0.3221649), wk =   0.0937500
        k(   40) = (   0.1250000   0.5051815  -0.4295533), wk =   0.0468750
        k(   41) = (   0.2500000   0.4330127   0.0000000), wk =   0.0234375
        k(   42) = (   0.2500000   0.4330127   0.1073883), wk =   0.0468750
        k(   43) = (   0.2500000   0.4330127   0.2147766), wk =   0.0468750
        k(   44) = (   0.2500000   0.4330127   0.3221649), wk =   0.0468750
        k(   45) = (   0.2500000   0.4330127  -0.4295533), wk =   0.0234375
        k(   46) = (   0.2500000   0.5773503   0.0000000), wk =   0.0234375
        k(   47) = (   0.2500000   0.5773503   0.1073883), wk =   0.0468750
        k(   48) = (   0.2500000   0.5773503   0.2147766), wk =   0.0468750
        k(   49) = (   0.2500000   0.5773503   0.3221649), wk =   0.0468750
        k(   50) = (   0.2500000   0.5773503  -0.4295533), wk =   0.0234375

     Dense  grid:    17341 G-vectors     FFT dimensions: (  32,  32,  40)

     Estimated max dynamical RAM per process >      28.50 MB

     Initial potential from superposition of free atoms

     starting charge       8.9949, renormalised to       9.0000
     Starting wfcs are   10 randomized atomic wfcs

     total cpu time spent up to now is        1.1 secs

     Self-consistent Calculation

     iteration #  1     ecut=    80.00 Ry     beta= 0.70
     Davidson diagonalization with overlap
     ethr =  1.00E-02,  avg # of iterations =  4.4

     total cpu time spent up to now is        2.7 secs

     total energy              =     -26.12476572 Ry
     estimated scf accuracy    <       0.17881277 Ry

     iteration #  2     ecut=    80.00 Ry     beta= 0.70
     Davidson diagonalization with overlap
     ethr =  1.99E-03,  avg # of iterations =  2.6

     total cpu time spent up to now is        4.2 secs

     total energy              =     -26.17011129 Ry
     estimated scf accuracy    <       0.01508711 Ry

     iteration #  3     ecut=    80.00 Ry     beta= 0.70
     Davidson diagonalization with overlap
     ethr =  1.68E-04,  avg # of iterations =  3.4

     total cpu time spent up to now is        5.7 secs

     total energy              =     -26.17217350 Ry
     estimated scf accuracy    <       0.00012675 Ry

     iteration #  4     ecut=    80.00 Ry     beta= 0.70
     Davidson diagonalization with overlap
     c_bands:  1 eigenvalues not converged
     ethr =  1.41E-06,  avg # of iterations =  7.0

     total cpu time spent up to now is        7.7 secs

     total energy              =     -26.17219516 Ry
     estimated scf accuracy    <       0.00001136 Ry

     iteration #  5     ecut=    80.00 Ry     beta= 0.70
     Davidson diagonalization with overlap
     ethr =  1.26E-07,  avg # of iterations =  2.0

     total cpu time spent up to now is        8.8 secs

     End of self-consistent calculation

          k = 0.0000 0.0000 0.0000 (  2137 PWs)   bands (ev):

   -39.3702  -5.7844   3.2981   6.7873   6.7873  10.7209  13.1895  13.1895
    16.3767

          k = 0.0000 0.0000 0.1074 (  2143 PWs)   bands (ev):

   -39.3699  -5.7132   2.7563   6.8183   6.8183  11.6592  13.3059  13.3059
    16.2222

          k = 0.0000 0.0000 0.2148 (  2119 PWs)   bands (ev):

   -39.3690  -5.5259   1.6981   6.8947   6.8947  13.6195  13.6195  13.8991
    15.9552

          k = 0.0000 0.0000 0.3222 (  2124 PWs)   bands (ev):

   -39.3682  -5.3104   0.8150   6.9734   6.9734  13.9987  13.9987  15.7525
    16.6636

          k = 0.0000 0.0000-0.4296 (  2130 PWs)   bands (ev):

   -39.3678  -5.2102   0.4751   7.0068   7.0068  14.1846  14.1846  15.6789
    17.9106

          k = 0.0000 0.1443 0.0000 (  2150 PWs)   bands (ev):

   -39.3673  -5.5313   3.6151   5.5622   6.1549  10.6496  13.6573  14.3757
    16.3236

          k = 0.0000 0.1443 0.1074 (  2150 PWs)   bands (ev):

   -39.3670  -5.4587   3.0488   5.6171   6.1946  11.5497  13.7742  14.4801
    15.6961

          k = 0.0000 0.1443 0.2148 (  2144 PWs)   bands (ev):

   -39.3662  -5.2674   1.9612   5.7423   6.2930  13.2842  14.4408  14.7687
    14.9450

          k = 0.0000 0.1443 0.3222 (  2139 PWs)   bands (ev):

   -39.3653  -5.0468   1.0614   5.8705   6.3954  13.8821  14.3492  15.1421
    16.7946

          k = 0.0000 0.1443-0.4296 (  2142 PWs)   bands (ev):

   -39.3650  -4.9440   0.7157   5.9256   6.4391  14.0200  14.1408  15.3437
    18.4657

          k = 0.0000 0.2887 0.0000 (  2154 PWs)   bands (ev):

   -39.3603  -4.7749   3.1021   4.5505   5.0740  10.8302  13.7554  14.0655
    16.9711

          k = 0.0000 0.2887 0.1074 (  2160 PWs)   bands (ev):

   -39.3600  -4.6981   3.1172   3.9879   5.1229  11.6915  13.2361  14.1182
    17.0113

          k = 0.0000 0.2887 0.2148 (  2158 PWs)   bands (ev):

   -39.3592  -4.4952   2.6455   3.4663   5.2450  12.2223  13.0792  14.9524
    17.0861

          k = 0.0000 0.2887 0.3222 (  2151 PWs)   bands (ev):

   -39.3584  -4.2600   1.7729   3.5648   5.3739  11.4239  13.4830  17.0554
    17.1471

          k = 0.0000 0.2887-0.4296 (  2142 PWs)   bands (ev):

   -39.3581  -4.1497   1.4224   3.6275   5.4295  11.1268  13.5455  16.9608
    18.0663

          k = 0.0000 0.4330 0.0000 (  2162 PWs)   bands (ev):

   -39.3533  -3.5354   0.6001   4.2861   6.0202  11.3750  11.4188  13.1762
    17.0967

          k = 0.0000 0.4330 0.1074 (  2160 PWs)   bands (ev):

   -39.3530  -3.4507   0.6588   4.3393   5.3136  10.6725  12.1445  13.7767
    17.7000

          k = 0.0000 0.4330 0.2148 (  2157 PWs)   bands (ev):

   -39.3523  -3.2268   0.8196   4.0254   4.4728   9.5470  12.9473  15.4317
    17.2938

          k = 0.0000 0.4330 0.3222 (  2160 PWs)   bands (ev):

   -39.3515  -2.9661   1.0340   2.9424   4.6145   8.7222  13.1117  16.3094
    17.7520

          k = 0.0000 0.4330-0.4296 (  2164 PWs)   bands (ev):

   -39.3512  -2.8433   1.1670   2.4850   4.6759   8.4226  13.1258  15.9497
    18.5691

          k = 0.0000-0.5774 0.0000 (  2186 PWs)   bands (ev):

   -39.3504  -2.2422  -1.1415   4.0085   7.2672   9.7196  12.1691  12.3081
    16.8399

          k = 0.0000-0.5774 0.1074 (  2172 PWs)   bands (ev):

   -39.3501  -2.1264  -1.1074   4.0628   6.4127   9.1056  12.5452  13.4543
    17.3371

          k = 0.0000-0.5774 0.2148 (  2164 PWs)   bands (ev):

   -39.3494  -1.8083  -1.0218   4.1995   4.9290   8.1118  12.8960  15.7855
    17.0403

          k = 0.0000-0.5774 0.3222 (  2154 PWs)   bands (ev):

   -39.3487  -1.4069  -0.9310   3.7119   4.3450   7.3795  12.9722  15.9862
    18.2645

          k = 0.0000-0.5774-0.4296 (  2172 PWs)   bands (ev):

   -39.3484  -1.1997  -0.8916   3.2210   4.4081   7.1156  12.9703  15.6095
    18.6744

          k = 0.1250 0.2165 0.0000 (  2154 PWs)   bands (ev):

   -39.3624  -5.0264   4.1039   4.2421   4.9018  10.8807  14.6446  14.8338
    15.1684

          k = 0.1250 0.2165 0.1074 (  2161 PWs)   bands (ev):

   -39.3621  -4.9510   3.6062   4.1687   4.9978  11.7828  14.1570  14.6938
    15.3468

          k = 0.1250 0.2165 0.2148 (  2149 PWs)   bands (ev):

   -39.3612  -4.7520   2.4703   4.3348   5.1201  13.1032  13.6026  15.0691
    15.6616

          k = 0.1250 0.2165 0.3222 (  2155 PWs)   bands (ev):

   -39.3604  -4.5216   1.5465   4.5171   5.2256  12.2908  14.3124  16.0456
    16.5879

          k = 0.1250 0.2165-0.4296 (  2158 PWs)   bands (ev):

   -39.3601  -4.4137   1.1923   4.5984   5.2690  11.9874  14.3939  16.2472
    16.6945

          k = 0.1250 0.3608 0.0000 (  2161 PWs)   bands (ev):

   -39.3554  -4.0249   1.8840   3.7164   5.4580  11.4262  12.5901  14.4952
    16.7382

          k = 0.1250 0.3608 0.1074 (  2164 PWs)   bands (ev):

   -39.3551  -3.9441   1.9481   3.7257   4.8493  11.8160  12.3582  14.7355
    17.1502

          k = 0.1250 0.3608 0.2148 (  2165 PWs)   bands (ev):

   -39.3543  -3.7301   2.1080   3.4244   4.0736  10.5966  13.9746  15.2358
    16.8041

          k = 0.1250 0.3608 0.3222 (  2160 PWs)   bands (ev):

   -39.3535  -3.4810   2.2345   2.6296   4.0742   9.6566  14.4094  15.5855
    17.8627

          k = 0.1250 0.3608-0.4296 (  2158 PWs)   bands (ev):

   -39.3532  -3.3637   2.1114   2.4759   4.1142   9.3041  14.4422  15.4167
    18.1272

          k = 0.1250 0.5052 0.0000 (  2169 PWs)   bands (ev):

   -39.3504  -2.5935  -0.3522   3.1501   7.0522  10.2943  12.2072  13.5457
    16.5992

          k = 0.1250 0.5052 0.1074 (  2167 PWs)   bands (ev):

   -39.3501  -2.4995  -0.2921   3.1956   6.2659   9.5973  13.1724  14.0916
    16.4132

          k = 0.1250 0.5052 0.2148 (  2163 PWs)   bands (ev):

   -39.3494  -2.2504  -0.1287   3.3173   4.8696   8.4304  14.0821  15.4441
    16.1021

          k = 0.1250 0.5052 0.3222 (  2163 PWs)   bands (ev):

   -39.3487  -1.9604   0.0798   3.4493   3.7305   7.5231  14.2084  15.0444
    18.2931

          k = 0.1250 0.5052-0.4296 (  2170 PWs)   bands (ev):

   -39.3484  -1.8245   0.1927   3.2236   3.5615   7.1787  14.2262  14.8089
    19.6666

          k = 0.2500 0.4330 0.0000 (  2166 PWs)   bands (ev):

   -39.3504  -2.8029   0.7051   1.9496   6.8837  10.9294  12.2881  14.9051
    17.0648

          k = 0.2500 0.4330 0.1074 (  2160 PWs)   bands (ev):

   -39.3501  -2.7149   0.7985   1.9647   6.1496  10.1038  13.2743  15.6347
    15.8106

          k = 0.2500 0.4330 0.2148 (  2162 PWs)   bands (ev):

   -39.3494  -2.4815   1.0466   2.0146   4.8236   8.7299  14.6395  15.7111
    17.0445

          k = 0.2500 0.4330 0.3222 (  2173 PWs)   bands (ev):

   -39.3487  -2.2087   1.3383   2.1130   3.7071   7.6559  14.3884  16.3779
    17.8933

          k = 0.2500 0.4330-0.4296 (  2168 PWs)   bands (ev):

   -39.3484  -2.0798   1.4770   2.2045   3.2261   7.2453  14.2431  16.3720
    18.1020

          k = 0.2500 0.5774 0.0000 (  2172 PWs)   bands (ev):

   -39.3484  -1.4938  -0.6920   1.3922   8.2091   9.5342  13.0044  14.0067
    15.1218

          k = 0.2500 0.5774 0.1074 (  2165 PWs)   bands (ev):

   -39.3481  -1.3836  -0.6193   1.4141   7.3539   8.7428  14.1268  14.6971
    15.1354

          k = 0.2500 0.5774 0.2148 (  2170 PWs)   bands (ev):

   -39.3474  -1.0834  -0.4360   1.4857   5.8893   7.3823  14.3551  16.3512
    16.4456

          k = 0.2500 0.5774 0.3222 (  2162 PWs)   bands (ev):

   -39.3466  -0.7120  -0.2424   1.6010   4.7060   6.2944  13.9970  16.8003
    18.6269

          k = 0.2500 0.5774-0.4296 (  2162 PWs)   bands (ev):

   -39.3463  -0.5248  -0.1600   1.6704   4.2367   5.8705  13.8670  16.8074
    19.8635

     the Fermi energy is     5.2729 ev

!    total energy              =     -26.17220813 Ry
     estimated scf accuracy    <       0.00000009 Ry

     The total energy is the sum of the following terms:
     one-electron contribution =      -2.77714689 Ry
     hartree contribution      =       3.78635399 Ry
     xc contribution           =      -8.22627334 Ry
     ewald contribution        =     -18.95514189 Ry

     convergence has been achieved in   5 iterations

     Forces acting on atoms (cartesian axes, Ry/au):

     atom    1 type  1   force =     0.00000000   -0.00000000    0.00000000
     atom    2 type  2   force =     0.00000000    0.00000000   -0.00000000
     atom    3 type  2   force =     0.00000000    0.00000000    0.00000000

     Total force =     0.000000     Total SCF correction =     0.000000


     Computing stress (Cartesian axis) and pressure

          total   stress  (Ry/bohr**3)                   (kbar)     P=       -0.52
   0.00001520   0.00000000   0.00000000            2.24        0.00        0.00
   0.00000000   0.00001520   0.00000000            0.00        2.24        0.00
   0.00000000  -0.00000000  -0.00004101            0.00       -0.00       -6.03


     Writing all to output data dir ./tmp/LiB2.save/ :
     XML data file, charge density, pseudopotentials, collected wavefunctions

     init_run     :      0.97s CPU      1.04s WALL (       1 calls)
     electrons    :      7.30s CPU      7.70s WALL (       1 calls)
     forces       :      0.54s CPU      0.58s WALL (       1 calls)
     stress       :      0.94s CPU      0.99s WALL (       1 calls)

     Called by init_run:
     wfcinit      :      0.59s CPU      0.61s WALL (       1 calls)
     potinit      :      0.07s CPU      0.08s WALL (       1 calls)
     hinit0       :      0.29s CPU      0.32s WALL (       1 calls)

     Called by electrons:
     c_bands      :      6.31s CPU      6.66s WALL (       5 calls)
     sum_band     :      0.91s CPU      0.95s WALL (       5 calls)
     v_of_rho     :      0.08s CPU      0.09s WALL (       6 calls)
     mix_rho      :      0.01s CPU      0.01s WALL (       5 calls)

     Called by c_bands:
     init_us_2    :      0.30s CPU      0.31s WALL (     650 calls)
     init_us_2:cp :      0.30s CPU      0.31s WALL (     650 calls)
     cegterg      :      6.00s CPU      6.32s WALL (     250 calls)

     Called by *egterg:
     cdiaghg      :      0.11s CPU      0.12s WALL (    1222 calls)
     h_psi        :      5.01s CPU      5.28s WALL (    1272 calls)
     g_psi        :      0.04s CPU      0.05s WALL (     972 calls)

     Called by h_psi:
     h_psi:calbec :      0.59s CPU      0.62s WALL (    1272 calls)
     vloc_psi     :      3.92s CPU      4.13s WALL (    1272 calls)
     add_vuspsi   :      0.46s CPU      0.49s WALL (    1272 calls)

     General routines
     calbec       :      1.02s CPU      1.08s WALL (    1522 calls)
     fft          :      0.20s CPU      0.22s WALL (      84 calls)
     ffts         :      0.00s CPU      0.00s WALL (       5 calls)
     fftw         :      3.74s CPU      3.95s WALL (   16052 calls)


     PWSCF        :      9.83s CPU     10.43s WALL


   This run was terminated on:  23:31:56  14Dec2024            

=------------------------------------------------------------------------------=
   JOB DONE.
=------------------------------------------------------------------------------=
