
     Program POST-PROC v.7.3 starts on 15Dec2024 at 20: 7:15 

     This program is part of the open-source Quantum ESPRESSO suite
     for quantum simulation of materials; please cite
         "P. Giannozzi et al., J. Phys.:Condens. Matter 21 395502 (2009);
         "P. Giannozzi et al., J. Phys.:Condens. Matter 29 465901 (2017);
         "P. Giannozzi et al., J. Chem. Phys. 152 154105 (2020);
          URL http://www.quantum-espresso.org", 
     in publications or presentations arising from this work. More details at
     http://www.quantum-espresso.org/quote

     Serial version
     5734 MiB available memory on the printing compute node when the environment starts


     Reading xml data from directory:

     ./tmp/LiB2.save/

     IMPORTANT: XC functional enforced from input :
     Exchange-correlation= PBE
                           (   1   4   3   4   0   0   0)
     Any further DFT definition will be discarded
     Please, verify this is what you really want


     G-vector sticks info
     --------------------
     sticks:   dense  smooth     PW     G-vecs:    dense   smooth      PW
     Sum         745     745    223                18961    18961    3051

     Using Slab Decomposition


     Calling punch_plot, plot_num =   0
     Writing data to file  LiB2.rho.out
     Reading data from file  LiB2.rho.out

     Writing data to be plotted to file LiB2.rho.xsf
     Plot Type: 3D                     Output format: XCrySDen     

     POST-PROC    :      0.51s CPU      0.59s WALL


   This run was terminated on:  20: 7:15  15Dec2024            

=------------------------------------------------------------------------------=
   JOB DONE.
=------------------------------------------------------------------------------=
78E+00  1.762893265E+00  1.976668078E+00  1.762893265E+00
  1.256045245E+00  7.263767727E-01  3.533272473E-01  1.546047061E-01  6.736126832E-02
  3.253100988E-02  1.856126168E-02  1.269012306E-02  1.026095904E-02  9.410041006E-03
  9.252349595E-03  9.357752188E-03  9.538052353E-03  9.717985993E-03  9.864825471E-03
  9.960240008E-03  9.993297690E-03  9.960240008E-03  9.864825471E-03  9.717985993E-03
  9.538052353E-03  9.357752188E-03  9.252349595E-03  9.410041006E-03  1.026095904E-02
  1.269012306E-02  1.856126168E-02  3.253100988E-02  6.736126832E-02  1.546047061E-01
  3.533272473E-01  7.263767727E-01  1.256045245E+00  1.006095491E+00  1.256045245E+00
  1.256045245E+00  1.006095491E+00  6.529839011E-01  3.533272473E-01  1.684201667E-01
  7.716188004E-02  3.762546919E-02  2.104008176E-02  1.387489998E-02  1.077636634E-02
  9.581942988E-03  9.267750003E-03  9.315053573E-03  9.482388671E-03  9.669512498E-03
  9.834286708E-03  9.954838088E-03  1.001819413E-02  1.001819413E-02  9.954838088E-03
  9.834286708E-03  9.669512498E-03  9.482388671E-03  9.315053573E-03  9.267750003E-03
  9.581942988E-03  1.077636634E-02  1.387489998E-02  2.104008176E-02  3.762546919E-02
  7.716188004E-02  1.684201667E-01  3.533272473E-01  6.529839011E-01  4.776424745E-01
  6.529839011E-01  7.263767727E-01  6.529839011E-01  4.776424745E-01  2.909668458E-01
  1.546047061E-01  7.716188004E-02  3.960715655E-02  2.253837919E-02  1.476028472E-02
  1.122740684E-02  9.763067286E-03  9.305534669E-03  9.291011840E-03  9.439583814E-03
  9.628853742E-03  9.807231545E-03  9.948892701E-03  1.003877928E-02  1.006941710E-02
  1.003877928E-02  9.948892701E-03  9.807231545E-03  9.628853742E-03  9.439583814E-03
  9.291011840E-03  9.305534669E-03  9.763067286E-03  1.122740684E-02  1.476028472E-02
  2.253837919E-02  3.960715655E-02  7.716188004E-02  1.546047061E-01  2.909668458E-01
  2.008362650E-01  2.909668458E-01  3.533272473E-01  3.533272473E-01  2.909668458E-01
  2.008362650E-01  1.207868306E-01  6.736126832E-02  3.762546919E-02  2.253837919E-02
  1.509017285E-02  1.149218248E-02  9.901010827E-03  9.346918721E-03  9.280321330E-03
  9.408646104E-03  9.595968022E-03  9.783661271E-03  9.942547018E-03  1.005515052E-02
  1.011268455E-02  1.011268455E-02  1.005515052E-02  9.942547018E-03  9.783661271E-03
  9.595968022E-03  9.408646104E-03  9.280321330E-03  9.346918721E-03  9.901010827E-03
  1.149218248E-02  1.509017285E-02  2.253837919E-02  3.762546919E-02  6.736126832E-02
  1.207868306E-01  8.279423110E-02  1.207868306E-01  1.546047061E-01  1.684201667E-01
  1.546047061E-01  1.207868306E-01  8.279423110E-02  5.236506245E-02  3.253100988E-02
  2.104008176E-02  1.476028472E-02  1.149218248E-02  9.952573731E-03  9.373344518E-03
  9.276978625E-03  9.388456669E-03  9.571028707E-03  9.763541730E-03  9.935378384E-03
  1.006702661E-02  1.014761999E-02  1.017440205E-02  1.014761999E-02  1.006702661E-02
  9.935378384E-03  9.763541730E-03  9.571028707E-03  9.388456669E-03  9.276978625E-03
  9.373344518E-03  9.952573731E-03  1.149218248E-02  1.476028472E-02  2.104008176E-02
  3.253100988E-02  5.236506245E-02  3.762677215E-02  5.236506245E-02  6.736126832E-02
  7.716188004E-02  7.716188004E-02  6.736126832E-02  5.236506245E-02  3.762677215E-02
  2.621336096E-02  1.856126168E-02  1.387489998E-02  1.122740684E-02  9.901010827E-03
  9.373344518E-03  9.276424121E-03  9.378421167E-03  9.555057087E-03  9.747956467E-03
  9.927636804E-03  1.007412013E-02  1.017424363E-02  1.022375363E-02  1.022375363E-02
  1.017424363E-02  1.007412013E-02  9.927636804E-03  9.747956467E-03  9.555057087E-03
  9.378421167E-03  9.276424121E-03  9.373344518E-03  9.901010827E-03  1.122740684E-02
  1.387489998E-02  1.856126168E-02  2.621336096E-02  2.036140884E-02  2.621336096E-02
  3.253100988E-02  3.762546919E-02  3.960715655E-02  3.762546919E-02  3.253100988E-02
  2.621336096E-02  2.036140884E-02  1.581323910E-02  1.269012306E-02  1.077636634E-02
  9.763067286E-03  9.346918721E-03  9.276978625E-03  9.378421167E-03  9.549500848E-03
  9.739179103E-03  9.921175786E-03  1.007710503E-02  1.019276791E-02  1.026149010E-02
  1.028387843E-02  1.026149010E-02  1.019276791E-02  1.007710503E-02  9.921175786E-03
  9.739179103E-03  9.549500848E-03  9.378421167E-03  9.276978625E-03  9.346918721E-03
  9.763067286E-03  1.077636634E-02  1.269012306E-02  1.581323910E-02  1.336071981E-02
  1.581323910E-02  1.856126168E-02  2.104008176E-02  2.253837919E-02  2.253837919E-02
  2.104008176E-02  1.856126168E-02  1.581323910E-02  1.336071981E-02  1.149164286E-02
  1.026095904E-02  9.581942988E-03  9.305534669E-03  9.280321330E-03  9.388456669E-03
  9.555057087E-03  9.739179103E-03  9.918605573E-03  1.007777739E-02  1.020358135E-02
  1.028774303E-02  1.032884578E-02  1.032884578E-02  1.028774303E-02  1.020358135E-02
  1.007777739E-02  9.918605573E-03  9.739179103E-03  9.555057087E-03  9.388456669E-03
  9.280321330E-03  9.305534669E-03  9.581942988E-03  1.026095904E-02  1.149164286E-02
  1.049350835E-02  1.149164286E-02  1.269012306E-02  1.387489998E-02  1.476028472E-02
  1.509017285E-02  1.476028472E-02  1.387489998E-02  1.269012306E-02  1.149164286E-02
  1.049350835E-02  9.798654951E-03  9.410041006E-03  9.267750003E-03  9.291011840E-03
  9.408646104E-03  9.571028707E-03  9.747956467E-03  9.921175786E-03  1.007777739E-02
  1.020711987E-02  1.030146799E-02  1.035763101E-02  1.037608435E-02  1.035763101E-02
  1.030146799E-02  1.020711987E-02  1.007777739E-02  9.921175786E-03  9.747956467E-03
  9.571028707E-03  9.408646104E-03  9.291011840E-03  9.267750003E-03  9.410041006E-03
  9.798654951E-03  9.466729249E-03  9.798654951E-03  1.026095904E-02  1.077636634E-02
  1.122740684E-02  1.149218248E-02  1.149218248E-02  1.122740684E-02  1.077636634E-02
  1.026095904E-02  9.798654951E-03  9.466729249E-03  9.290306136E-03  9.252349595E-03
  9.315053573E-03  9.439583814E-03  9.595968022E-03  9.763541730E-03  9.927636804E-03
  1.007710503E-02  1.020358135E-02  1.030146799E-02  1.036768560E-02  1.040096193E-02
  1.040096193E-02  1.036768560E-02  1.030146799E-02  1.020358135E-02  1.007710503E-02
  9.927636804E-03  9.763541730E-03  9.595968022E-03  9.439583814E-03  9.315053573E-03
  9.252349595E-03  9.290306136E-03  9.244463784E-03  9.290306136E-03  9.410041006E-03
  9.581942988E-03  9.763067286E-03  9.901010827E-03  9.952573731E-03  9.901010827E-03
  9.763067286E-03  9.581942988E-03  9.410041006E-03  9.290306136E-03  9.244463784E-03
  9.271978094E-03  9.357752188E-03  9.482388671E-03  9.628853742E-03  9.783661271E-03
  9.935378384E-03  1.007412013E-02  1.019276791E-02  1.028774303E-02  1.035763101E-02
  1.040096193E-02  1.041574182E-02  1.040096193E-02  1.035763101E-02  1.028774303E-02
  1.019276791E-02  1.007412013E-02  9.935378384E-03  9.783661271E-03  9.628853742E-03
  9.482388671E-03  9.357752188E-03  9.271978094E-03  9.330013730E-03  9.271978094E-03
  9.252349595E-03  9.267750003E-03  9.305534669E-03  9.346918721E-03  9.373344518E-03
  9.373344518E-03  9.346918721E-03  9.305534669E-03  9.267750003E-03  9.252349595E-03
  9.271978094E-03  9.330013730E-03  9.421700233E-03  9.538052353E-03  9.669512498E-03
  9.807231545E-03  9.942547018E-03  1.006702661E-02  1.017424363E-02  1.026149010E-02
  1.032884578E-02  1.037608435E-02  1.040096193E-02  1.040096193E-02  1.037608435E-02
  1.032884578E-02  1.026149010E-02  1.017424363E-02  1.006702661E-02  9.942547018E-03
  9.807231545E-03  9.669512498E-03  9.538052353E-03  9.421700233E-03  9.505920777E-03
  9.421700233E-03  9.357752188E-03  9.315053573E-03  9.291011840E-03  9.280321330E-03
  9.276978625E-03  9.276424121E-03  9.276978625E-03  9.280321330E-03  9.291011840E-03
  9.315053573E-03  9.357752188E-03  9.421700233E-03  9.505920777E-03  9.606504919E-03
  9.717985993E-03  9.834286708E-03  9.948892701E-03  1.005515052E-02  1.014761999E-02
  1.022375363E-02  1.028387843E-02  1.032884578E-02  1.035763101E-02  1.036768560E-02
  1.035763101E-02  1.032884578E-02  1.028387843E-02  1.022375363E-02  1.014761999E-02
  1.005515052E-02  9.948892701E-03  9.834286708E-03  9.717985993E-03  9.606504919E-03
  9.686083329E-03  9.606504919E-03  9.538052353E-03  9.482388671E-03  9.439583814E-03
  9.408646104E-03  9.388456669E-03  9.378421167E-03  9.378421167E-03  9.388456669E-03
  9.408646104E-03  9.439583814E-03  9.482388671E-03  9.538052353E-03  9.606504919E-03
  9.686083329E-03  9.773613563E-03  9.864825471E-03  9.954838088E-03  1.003877928E-02
  1.011268455E-02  1.017440205E-02  1.022375363E-02  1.026149010E-02  1.028774303E-02
  1.030146799E-02  1.030146799E-02  1.028774303E-02  1.026149010E-02  1.022375363E-02
  1.017440205E-02  1.011268455E-02  1.003877928E-02  9.954838088E-03  9.864825471E-03
  9.773613563E-03  9.834564773E-03  9.773613563E-03  9.717985993E-03  9.669512498E-03
  9.628853742E-03  9.595968022E-03  9.571028707E-03  9.555057087E-03  9.549500848E-03
  9.555057087E-03  9.571028707E-03  9.595968022E-03  9.628853742E-03  9.669512498E-03
  9.717985993E-03  9.773613563E-03  9.834564773E-03  9.897933744E-03  9.960240008E-03
  1.001819413E-02  1.006941710E-02  1.011268455E-02  1.014761999E-02  1.017424363E-02
  1.019276791E-02  1.020358135E-02  1.020711987E-02  1.020358135E-02  1.019276791E-02
  1.017424363E-02  1.014761999E-02  1.011268455E-02  1.006941710E-02  1.001819413E-02
  9.960240008E-03  9.897933744E-03  9.931780284E-03  9.897933744E-03  9.864825471E-03
  9.834286708E-03  9.807231545E-03  9.783661271E-03  9.763541730E-03  9.747956467E-03
  9.739179103E-03  9.739179103E-03  9.747956467E-03  9.763541730E-03  9.783661271E-03
  9.807231545E-03  9.834286708E-03  9.864825471E-03  9.897933744E-03  9.931780284E-03
  9.964178884E-03  9.993297690E-03  1.001819413E-02  1.003877928E-02  1.005515052E-02
  1.006702661E-02  1.007412013E-02  1.007710503E-02  1.007777739E-02  1.007777739E-02
  1.007710503E-02  1.007412013E-02  1.006702661E-02  1.005515052E-02  1.003877928E-02
  1.001819413E-02  9.993297690E-03  9.964178884E-03  9.965633405E-03  9.964178884E-03
  9.960240008E-03  9.954838088E-03  9.948892701E-03  9.942547018E-03  9.935378384E-03
  9.927636804E-03  9.921175786E-03  9.918605573E-03  9.921175786E-03  9.927636804E-03
  9.935378384E-03  9.942547018E-03  9.948892701E-03  9.954838088E-03  9.960240008E-03
  9.964178884E-03  9.965633405E-03  9.964178884E-03  9.960240008E-03  9.954838088E-03
  9.948892701E-03  9.942547018E-03  9.935378384E-03  9.927636804E-03  9.921175786E-03
  9.918605573E-03  9.921175786E-03  9.927636804E-03  9.935378384E-03  9.942547018E-03
  9.948892701E-03  9.954838088E-03  9.960240008E-03  9.964178884E-03  9.931780284E-03
  9.964178884E-03  9.993297690E-03  1.001819413E-02  1.003877928E-02  1.005515052E-02
  1.006702661E-02  1.007412013E-02  1.007710503E-02  1.007777739E-02  1.007777739E-02
  1.007710503E-02  1.007412013E-02  1.006702661E-02  1.005515052E-02  1.003877928E-02
  1.001819413E-02  9.993297690E-03  9.964178884E-03  9.931780284E-03  9.897933744E-03
  9.864825471E-03  9.834286708E-03  9.807231545E-03  9.783661271E-03  9.763541730E-03
  9.747956467E-03  9.739179103E-03  9.739179103E-03  9.747956467E-03  9.763541730E-03
  9.783661271E-03  9.807231545E-03  9.834286708E-03  9.864825471E-03  9.897933744E-03
  9.834564773E-03  9.897933744E-03  9.960240008E-03  1.001819413E-02  1.006941710E-02
  1.011268455E-02  1.014761999E-02  1.017424363E-02  1.019276791E-02  1.020358135E-02
  1.020711987E-02  1.020358135E-02  1.019276791E-02  1.017424363E-02  1.014761999E-02
  1.011268455E-02  1.006941710E-02  1.001819413E-02  9.960240008E-03  9.897933744E-03
  9.834564773E-03  9.773613563E-03  9.717985993E-03  9.669512498E-03  9.628853742E-03
  9.595968022E-03  9.571028707E-03  9.555057087E-03  9.549500848E-03  9.555057087E-03
  9.571028707E-03  9.595968022E-03  9.628853742E-03  9.669512498E-03  9.717985993E-03
  9.773613563E-03  9.686083329E-03  9.773613563E-03  9.864825471E-03  9.954838088E-03
  1.003877928E-02  1.011268455E-02  1.017440205E-02  1.022375363E-02  1.026149010E-02
  1.028774303E-02  1.030146799E-02  1.030146799E-02  1.028774303E-02  1.026149010E-02
  1.022375363E-02  1.017440205E-02  1.011268455E-02  1.003877928E-02  9.954838088E-03
  9.864825471E-03  9.773613563E-03  9.686083329E-03  9.606504919E-03  9.538052353E-03
  9.482388671E-03  9.439583814E-03  9.408646104E-03  9.388456669E-03  9.378421167E-03
  9.378421167E-03  9.388456669E-03  9.408646104E-03  9.439583814E-03  9.482388671E-03
  9.538052353E-03  9.606504919E-03  9.505920777E-03  9.606504919E-03  9.717985993E-03
  9.834286708E-03  9.948892701E-03  1.005515052E-02  1.014761999E-02  1.022375363E-02
  1.028387843E-02  1.032884578E-02  1.035763101E-02  1.036768560E-02  1.035763101E-02
  1.032884578E-02  1.028387843E-02  1.022375363E-02  1.014761999E-02  1.005515052E-02
  9.948892701E-03  9.834286708E-03  9.717985993E-03  9.606504919E-03  9.505920777E-03
  9.421700233E-03  9.357752188E-03  9.315053573E-03  9.291011840E-03  9.280321330E-03
  9.276978625E-03  9.276424121E-03  9.276978625E-03  9.280321330E-03  9.291011840E-03
  9.315053573E-03  9.357752188E-03  9.421700233E-03  9.330013730E-03  9.421700233E-03
  9.538052353E-03  9.669512498E-03  9.807231545E-03  9.942547018E-03  1.006702661E-02
  1.017424363E-02  1.026149010E-02  1.032884578E-02  1.037608435E-02  1.040096193E-02
  1.040096193E-02  1.037608435E-02  1.032884578E-02  1.026149010E-02  1.017424363E-02
  1.006702661E-02  9.942547018E-03  9.807231545E-03  9.669512498E-03  9.538052353E-03
  9.421700233E-03  9.330013730E-03  9.271978094E-03  9.252349595E-03  9.267750003E-03
  9.305534669E-03  9.346918721E-03  9.373344518E-03  9.373344518E-03  9.346918721E-03
  9.305534669E-03  9.267750003E-03  9.252349595E-03  9.271978094E-03  9.244463784E-03
  9.271978094E-03  9.357752188E-03  9.482388671E-03  9.628853742E-03  9.783661271E-03
  9.935378384E-03  1.007412013E-02  1.019276791E-02  1.028774303E-02  1.035763101E-02
  1.040096193E-02  1.041574182E-02  1.040096193E-02  1.035763101E-02  1.028774303E-02
  1.019276791E-02  1.007412013E-02  9.935378384E-03  9.783661271E-03  9.628853742E-03
  9.482388671E-03  9.357752188E-03  9.271978094E-03  9.244463784E-03  9.290306136E-03
  9.410041006E-03  9.581942988E-03  9.763067286E-03  9.901010827E-03  9.952573731E-03
  9.901010827E-03  9.763067286E-03  9.581942988E-03  9.410041006E-03  9.290306136E-03
  9.466729249E-03  9.290306136E-03  9.252349595E-03  9.315053573E-03  9.439583814E-03
  9.595968022E-03  9.763541730E-03  9.927636804E-03  1.007710503E-02  1.020358135E-02
  1.030146799E-02  1.036768560E-02  1.040096193E-02  1.040096193E-02  1.036768560E-02
  1.030146799E-02  1.020358135E-02  1.007710503E-02  9.927636804E-03  9.763541730E-03
  9.595968022E-03  9.439583814E-03  9.315053573E-03  9.252349595E-03  9.290306136E-03
  9.466729249E-03  9.798654951E-03  1.026095904E-02  1.077636634E-02  1.122740684E-02
  1.149218248E-02  1.149218248E-02  1.122740684E-02  1.077636634E-02  1.026095904E-02
  9.798654951E-03  1.049350835E-02  9.798654951E-03  9.410041006E-03  9.267750003E-03
  9.291011840E-03  9.408646104E-03  9.571028707E-03  9.747956467E-03  9.921175786E-03
  1.007777739E-02  1.020711987E-02  1.030146799E-02  1.035763101E-02  1.037608435E-02
  1.035763101E-02  1.030146799E-02  1.020711987E-02  1.007777739E-02  9.921175786E-03
  9.747956467E-03  9.571028707E-03  9.408646104E-03  9.291011840E-03  9.267750003E-03
  9.410041006E-03  9.798654951E-03  1.049350835E-02  1.149164286E-02  1.269012306E-02
  1.387489998E-02  1.476028472E-02  1.509017285E-02  1.476028472E-02  1.387489998E-02
  1.269012306E-02  1.149164286E-02  1.336071981E-02  1.149164286E-02  1.026095904E-02
  9.581942988E-03  9.305534669E-03  9.280321330E-03  9.388456669E-03  9.555057087E-03
  9.739179103E-03  9.918605573E-03  1.007777739E-02  1.020358135E-02  1.028774303E-02
  1.032884578E-02  1.032884578E-02  1.028774303E-02  1.020358135E-02  1.007777739E-02
  9.918605573E-03  9.739179103E-03  9.555057087E-03  9.388456669E-03  9.280321330E-03
  9.305534669E-03  9.581942988E-03  1.026095904E-02  1.149164286E-02  1.336071981E-02
  1.581323910E-02  1.856126168E-02  2.104008176E-02  2.253837919E-02  2.253837919E-02
  2.104008176E-02  1.856126168E-02  1.581323910E-02  2.036140884E-02  1.581323910E-02
  1.269012306E-02  1.077636634E-02  9.763067286E-03  9.346918721E-03  9.276978625E-03
  9.378421167E-03  9.549500848E-03  9.739179103E-03  9.921175786E-03  1.007710503E-02
  1.019276791E-02  1.026149010E-02  1.028387843E-02  1.026149010E-02  1.019276791E-02
  1.007710503E-02  9.921175786E-03  9.739179103E-03  9.549500848E-03  9.378421167E-03
  9.276978625E-03  9.346918721E-03  9.763067286E-03  1.077636634E-02  1.269012306E-02
  1.581323910E-02  2.036140884E-02  2.621336096E-02  3.253100988E-02  3.762546919E-02
  3.960715655E-02  3.762546919E-02  3.253100988E-02  2.621336096E-02  3.762677215E-02
  2.621336096E-02  1.856126168E-02  1.387489998E-02  1.122740684E-02  9.901010827E-03
  9.373344518E-03  9.276424121E-03  9.378421167E-03  9.555057087E-03  9.747956467E-03
  9.927636804E-03  1.007412013E-02  1.017424363E-02  1.022375363E-02  1.022375363E-02
  1.017424363E-02  1.007412013E-02  9.927636804E-03  9.747956467E-03  9.555057087E-03
  9.378421167E-03  9.276424121E-03  9.373344518E-03  9.901010827E-03  1.122740684E-02
  1.387489998E-02  1.856126168E-02  2.621336096E-02  3.762677215E-02  5.236506245E-02
  6.736126832E-02  7.716188004E-02  7.716188004E-02  6.736126832E-02  5.236506245E-02
  8.279423110E-02  5.236506245E-02  3.253100988E-02  2.104008176E-02  1.476028472E-02
  1.149218248E-02  9.952573731E-03  9.373344518E-03  9.276978625E-03  9.388456669E-03
  9.571028707E-03  9.763541730E-03  9.935378384E-03  1.006702661E-02  1.014761999E-02
  1.017440205E-02  1.014761999E-02  1.006702661E-02  9.935378384E-03  9.763541730E-03
  9.571028707E-03  9.388456669E-03  9.276978625E-03  9.373344518E-03  9.952573731E-03
  1.149218248E-02  1.476028472E-02  2.104008176E-02  3.253100988E-02  5.236506245E-02
  8.279423110E-02  1.207868306E-01  1.546047061E-01  1.684201667E-01  1.546047061E-01
  1.207868306E-01  2.008362650E-01  1.207868306E-01  6.736126832E-02  3.762546919E-02
  2.253837919E-02  1.509017285E-02  1.149218248E-02  9.901010827E-03  9.346918721E-03
  9.280321330E-03  9.408646104E-03  9.595968022E-03  9.783661271E-03  9.942547018E-03
  1.005515052E-02  1.011268455E-02  1.011268455E-02  1.005515052E-02  9.942547018E-03
  9.783661271E-03  9.595968022E-03  9.408646104E-03  9.280321330E-03  9.346918721E-03
  9.901010827E-03  1.149218248E-02  1.509017285E-02  2.253837919E-02  3.762546919E-02
  6.736126832E-02  1.207868306E-01  2.008362650E-01  2.909668458E-01  3.533272473E-01
  3.533272473E-01  2.909668458E-01  4.776424745E-01  2.909668458E-01  1.546047061E-01
  7.716188004E-02  3.960715655E-02  2.253837919E-02  1.476028472E-02  1.122740684E-02
  9.763067286E-03  9.305534669E-03  9.291011840E-03  9.439583814E-03  9.628853742E-03
  9.807231545E-03  9.948892701E-03  1.003877928E-02  1.006941710E-02  1.003877928E-02
  9.948892701E-03  9.807231545E-03  9.628853742E-03  9.439583814E-03  9.291011840E-03
  9.305534669E-03  9.763067286E-03  1.122740684E-02  1.476028472E-02  2.253837919E-02
  3.960715655E-02  7.716188004E-02  1.546047061E-01  2.909668458E-01  4.776424745E-01
  6.529839011E-01  7.263767727E-01  6.529839011E-01  1.006095491E+00  6.529839011E-01
  3.533272473E-01  1.684201667E-01  7.716188004E-02  3.762546919E-02  2.104008176E-02
  1.387489998E-02  1.077636634E-02  9.581942988E-03  9.267750003E-03  9.315053573E-03
  9.482388671E-03  9.669512498E-03  9.834286708E-03  9.954838088E-03  1.001819413E-02
  1.001819413E-02  9.954838088E-03  9.834286708E-03  9.669512498E-03  9.482388671E-03
  9.315053573E-03  9.267750003E-03  9.581942988E-03  1.077636634E-02  1.387489998E-02
  2.104008176E-02  3.762546919E-02  7.716188004E-02  1.684201667E-01  3.533272473E-01
  6.529839011E-01  1.006095491E+00  1.256045245E+00  1.256045245E+00  1.762893265E+00
  1.256045245E+00  7.263767727E-01  3.533272473E-01  1.546047061E-01  6.736126832E-02
  3.253100988E-02  1.856126168E-02  1.269012306E-02  1.026095904E-02  9.410041006E-03
  9.252349595E-03  9.357752188E-03  9.538052353E-03  9.717985993E-03  9.864825471E-03
  9.960240008E-03  9.993297690E-03  9.960240008E-03  9.864825471E-03  9.717985993E-03
  9.538052353E-03  9.357752188E-03  9.252349595E-03  9.410041006E-03  1.026095904E-02
  1.269012306E-02  1.856126168E-02  3.253100988E-02  6.736126832E-02  1.546047061E-01
  3.533272473E-01  7.263767727E-01  1.256045245E+00  1.762893265E+00  1.976668078E+00
  2.489926089E+00  1.976668078E+00  1.256045245E+00  6.529839011E-01  2.909668458E-01
  1.207868306E-01  5.236506245E-02  2.621336096E-02  1.581323910E-02  1.149164286E-02
  9.798654951E-03  9.290306136E-03  9.271978094E-03  9.421700233E-03  9.606504919E-03
  9.773613563E-03  9.897933744E-03  9.964178884E-03  9.964178884E-03  9.897933744E-03
  9.773613563E-03  9.606504919E-03  9.421700233E-03  9.271978094E-03  9.290306136E-03
  9.798654951E-03  1.149164286E-02  1.581323910E-02  2.621336096E-02  5.236506245E-02
  1.207868306E-01  2.909668458E-01  6.529839011E-01  1.256045245E+00  1.976668078E+00
  2.489926089E+00  2.473533805E+00  2.203305963E+00  1.563245526E+00  8.961347815E-01
  4.289815840E-01  1.828962283E-01  7.691059036E-02  3.575996215E-02  1.976770456E-02
  1.320675584E-02  1.051751042E-02  9.570418080E-03  9.385697896E-03  9.491049747E-03
  9.679545664E-03  9.868718520E-03  1.002341969E-02  1.012419904E-02  1.015918955E-02
  1.012419904E-02  1.002341969E-02  9.868718520E-03  9.679545664E-03  9.491049747E-03
  9.385697896E-03  9.570418080E-03  1.051751042E-02  1.320675584E-02  1.976770456E-02
  3.575996215E-02  7.691059036E-02  1.828962283E-01  4.289815840E-01  8.961347815E-01
  1.563245526E+00  2.203305963E+00  2.203305963E+00  2.203305963E+00  1.751502316E+00
  1.116613323E+00  5.842078218E-01  2.632437883E-01  1.111745929E-01  4.926460001E-02
  2.521592821E-02  1.551013591E-02  1.145162959E-02  9.872752130E-03  9.416955138E-03
  9.424626629E-03  9.589511194E-03  9.784804747E-03  9.959440437E-03  1.008857939E-02
  1.015710768E-02  1.015710768E-02  1.008857939E-02  9.959440437E-03  9.784804747E-03
  9.589511194E-03  9.424626629E-03  9.416955138E-03  9.872752130E-03  1.145162959E-02
  1.551013591E-02  2.521592821E-02  4.926460001E-02  1.111745929E-01  2.632437883E-01
  5.842078218E-01  1.116613323E+00  1.751502316E+00  1.563245526E+00  1.751502316E+00
  1.563245526E+00  1.116613323E+00  6.491004245E-01  3.186868380E-01  1.415326379E-01
  6.292012835E-02  3.106442508E-02  1.808580441E-02  1.257733008E-02  1.030106832E-02
  9.519825375E-03  9.395456013E-03  9.518975621E-03  9.711220780E-03  9.899867572E-03
  1.005271541E-02  1.015153432E-02  1.018566752E-02  1.015153432E-02  1.005271541E-02
  9.899867572E-03  9.711220780E-03  9.518975621E-03  9.395456013E-03  9.519825375E-03
  1.030106832E-02  1.257733008E-02  1.808580441E-02  3.106442508E-02  6.292012835E-02
  1.415326379E-01  3.186868380E-01  6.491004245E-01  1.116613323E+00  8.961347815E-01
  1.116613323E+00  1.116613323E+00  8.961347815E-01  5.842078218E-01  3.186868380E-01
  1.539075412E-01  7.181103078E-02  3.575988722E-02  2.040295894E-02  1.369153751E-02
  1.078268691E-02  9.674717329E-03  9.401359204E-03  9.469777462E-03  9.650333826E-03
  9.847137995E-03  1.001900235E-02  1.014407477E-02  1.020954801E-02  1.020954801E-02
  1.014407477E-02  1.001900235E-02  9.847137995E-03  9.650333826E-03  9.469777462E-03
  9.401359204E-03  9.674717329E-03  1.078268691E-02  1.369153751E-02  2.040295894E-02
  3.575988722E-02  7.181103078E-02  1.539075412E-01  3.186868380E-01  5.842078218E-01
  4.289815840E-01  5.842078218E-01  6.491004245E-01  5.842078218E-01  4.289815840E-01
  2.632437883E-01  1.415326379E-01  7.181103078E-02  3.758210433E-02  2.180061441E-02
  1.452428923E-02  1.120615207E-02  9.841373668E-03  9.431173612E-03  9.440427223E-03
  9.603159003E-03  9.802704810E-03  9.989007364E-03  1.013625776E-02  1.022933931E-02
  1.026099092E-02  1.022933931E-02  1.013625776E-02  9.989007364E-03  9.802704810E-03
  9.603159003E-03  9.440427223E-03  9.431173612E-03  9.841373668E-03  1.120615207E-02
  1.452428923E-02  2.180061441E-02  3.758210433E-02  7.181103078E-02  1.415326379E-01
  2.632437883E-01  1.828962283E-01  2.632437883E-01  3.186868380E-01  3.186868380E-01
  2.632437883E-01  1.828962283E-01  1.111745929E-01  6.292012835E-02  3.575988722E-02
  2.180061441E-02  1.483451800E-02  1.145534294E-02  9.969705437E-03  9.467137639E-03
  9.426340073E-03  9.569452645E-03  9.767265690E-03  9.963332172E-03  1.012865793E-02
  1.024552396E-02  1.030512195E-02  1.030512195E-02  1.024552396E-02  1.012865793E-02
  9.963332172E-03  9.767265690E-03  9.569452645E-03  9.426340073E-03  9.467137639E-03
  9.969705437E-03  1.145534294E-02  1.483451800E-02  2.180061441E-02  3.575988722E-02
  6.292012835E-02  1.111745929E-01  7.691059036E-02  1.111745929E-01  1.415326379E-01
  1.539075412E-01  1.415326379E-01  1.111745929E-01  7.691059036E-02  4.926460001E-02
  3.106442508E-02  2.040295894E-02  1.452428923E-02  1.145534294E-02  1.001791577E-02
  9.490932722E-03  9.421408666E-03  9.548123633E-03  9.741248470E-03  9.942264767E-03
  1.012103819E-02  1.025781800E-02  1.034151077E-02  1.036931985E-02  1.034151077E-02
  1.025781800E-02  1.012103819E-02  9.942264767E-03  9.741248470E-03  9.548123633E-03
  9.421408666E-03  9.490932722E-03  1.001791577E-02  1.145534294E-02  1.452428923E-02
  2.040295894E-02  3.106442508E-02  4.926460001E-02  3.575996215E-02  4.926460001E-02
  6.292012835E-02  7.181103078E-02  7.181103078E-02  6.292012835E-02  4.926460001E-02
  3.575996215E-02  2.521592821E-02  1.808580441E-02  1.369153751E-02  1.120615207E-02
  9.969705437E-03  9.490932722E-03  9.420442612E-03  9.537880435E-03  9.725204477E-03
  9.926685052E-03  1.011353150E-02  1.026568313E-02  1.036973606E-02  1.042125519E-02
  1.042125519E-02  1.036973606E-02  1.026568313E-02  1.011353150E-02  9.926685052E-03
  9.725204477E-03  9.537880435E-03  9.420442612E-03  9.490932722E-03  9.969705437E-03
  1.120615207E-02  1.369153751E-02  1.808580441E-02  2.521592821E-02  1.976770456E-02
  2.521592821E-02  3.106442508E-02  3.575988722E-02  3.758210433E-02  3.575988722E-02
  3.106442508E-02  2.521592821E-02  1.976770456E-02  1.551013591E-02  1.257733008E-02
  1.078268691E-02  9.841373668E-03  9.467137639E-03  9.421408666E-03  9.537880435E-03
  9.719759701E-03  9.918208557E-03  1.010756768E-02  1.026945849E-02  1.038955911E-02
  1.046104944E-02  1.048438424E-02  1.046104944E-02  1.038955911E-02  1.026945849E-02
  1.010756768E-02  9.918208557E-03  9.719759701E-03  9.537880435E-03  9.421408666E-03
  9.467137639E-03  9.841373668E-03  1.078268691E-02  1.257733008E-02  1.551013591E-02
  1.320675584E-02  1.551013591E-02  1.808580441E-02  2.040295894E-02  2.180061441E-02
  2.180061441E-02  2.040295894E-02  1.808580441E-02  1.551013591E-02  1.320675584E-02
  1.145162959E-02  1.030106832E-02  9.674717329E-03  9.431173612E-03  9.426340073E-03
  9.548123633E-03  9.725204477E-03  9.918208557E-03  1.010524169E-02  1.027062563E-02
  1.040115344E-02  1.048853216E-02  1.053128644E-02  1.053128644E-02  1.048853216E-02
  1.040115344E-02  1.027062563E-02  1.010524169E-02  9.918208557E-03  9.725204477E-03
  9.548123633E-03  9.426340073E-03  9.431173612E-03  9.674717329E-03  1.030106832E-02
  1.145162959E-02  1.051751042E-02  1.145162959E-02  1.257733008E-02  1.369153751E-02
  1.452428923E-02  1.483451800E-02  1.452428923E-02  1.369153751E-02  1.257733008E-02
  1.145162959E-02  1.051751042E-02  9.872752130E-03  9.519825375E-03  9.401359204E-03
  9.440427223E-03  9.569452645E-03  9.741248470E-03  9.926685052E-03  1.010756768E-02
  1.027062563E-02  1.040494387E-02  1.050276516E-02  1.056098603E-02  1.058012493E-02
  1.056098603E-02  1.050276516E-02  1.040494387E-02  1.027062563E-02  1.010756768E-02
  9.926685052E-03  9.741248470E-03  9.569452645E-03  9.440427223E-03  9.401359204E-03
  9.519825375E-03  9.872752130E-03  9.570418080E-03  9.872752130E-03  1.030106832E-02
  1.078268691E-02  1.120615207E-02  1.145534294E-02  1.145534294E-02  1.120615207E-02
  1.078268691E-02  1.030106832E-02  9.872752130E-03  9.570418080E-03  9.416955138E-03
  9.395456013E-03  9.469777462E-03  9.603159003E-03  9.767265690E-03  9.942264767E-03
  1.011353150E-02  1.026945849E-02  1.040115344E-02  1.050276516E-02  1.057128164E-02
  1.060563468E-02  1.060563468E-02  1.057128164E-02  1.050276516E-02  1.040115344E-02
  1.026945849E-02  1.011353150E-02  9.942264767E-03  9.767265690E-03  9.603159003E-03
  9.469777462E-03  9.395456013E-03  9.416955138E-03  9.385697896E-03  9.416955138E-03
  9.519825375E-03  9.674717329E-03  9.841373668E-03  9.969705437E-03  1.001791577E-02
  9.969705437E-03  9.841373668E-03  9.674717329E-03  9.519825375E-03  9.416955138E-03
  9.385697896E-03  9.424626629E-03  9.518975621E-03  9.650333826E-03  9.802704810E-03
  9.963332172E-03  1.012103819E-02  1.026568313E-02  1.038955911E-02  1.048853216E-02
  1.056098603E-02  1.060563468E-02  1.062080382E-02  1.060563468E-02  1.056098603E-02
  1.048853216E-02  1.038955911E-02  1.026568313E-02  1.012103819E-02  9.963332172E-03
  9.802704810E-03  9.650333826E-03  9.518975621E-03  9.424626629E-03  9.491049747E-03
  9.424626629E-03  9.395456013E-03  9.401359204E-03  9.431173612E-03  9.467137639E-03
  9.490932722E-03  9.490932722E-03  9.467137639E-03  9.431173612E-03  9.401359204E-03
  9.395456013E-03  9.424626629E-03  9.491049747E-03  9.589511194E-03  9.711220780E-03
  9.847137995E-03  9.989007364E-03  1.012865793E-02  1.025781800E-02  1.036973606E-02
  1.046104944E-02  1.053128644E-02  1.058012493E-02  1.060563468E-02  1.060563468E-02
  1.058012493E-02  1.053128644E-02  1.046104944E-02  1.036973606E-02  1.025781800E-02
  1.012865793E-02  9.989007364E-03  9.847137995E-03  9.711220780E-03  9.589511194E-03
  9.679545664E-03  9.589511194E-03  9.518975621E-03  9.469777462E-03  9.440427223E-03
  9.426340073E-03  9.421408666E-03  9.420442612E-03  9.421408666E-03  9.426340073E-03
  9.440427223E-03  9.469777462E-03  9.518975621E-03  9.589511194E-03  9.679545664E-03
  9.784804747E-03  9.899867572E-03  1.001900235E-02  1.013625776E-02  1.024552396E-02
  1.034151077E-02  1.042125519E-02  1.048438424E-02  1.053128644E-02  1.056098603E-02
  1.057128164E-02  1.056098603E-02  1.053128644E-02  1.048438424E-02  1.042125519E-02
  1.034151077E-02  1.024552396E-02  1.013625776E-02  1.001900235E-02  9.899867572E-03
  9.784804747E-03  9.868718520E-03  9.784804747E-03  9.711220780E-03  9.650333826E-03
  9.603159003E-03  9.569452645E-03  9.548123633E-03  9.537880435E-03  9.537880435E-03
  9.548123633E-03  9.569452645E-03  9.603159003E-03  9.650333826E-03  9.711220780E-03
  9.784804747E-03  9.868718520E-03  9.959440437E-03  1.005271541E-02  1.014407477E-02
  1.022933931E-02  1.030512195E-02  1.036931985E-02  1.042125519E-02  1.046104944E-02
  1.048853216E-02  1.050276516E-02  1.050276516E-02  1.048853216E-02  1.046104944E-02
  1.042125519E-02  1.036931985E-02  1.030512195E-02  1.022933931E-02  1.014407477E-02
  1.005271541E-02  9.959440437E-03  1.002341969E-02  9.959440437E-03  9.899867572E-03
  9.847137995E-03  9.802704810E-03  9.767265690E-03  9.741248470E-03  9.725204477E-03
  9.719759701E-03  9.725204477E-03  9.741248470E-03  9.767265690E-03  9.802704810E-03
  9.847137995E-03  9.899867572E-03  9.959440437E-03  1.002341969E-02  1.008857939E-02
  1.015153432E-02  1.020954801E-02  1.026099092E-02  1.030512195E-02  1.034151077E-02
  1.036973606E-02  1.038955911E-02  1.040115344E-02  1.040494387E-02  1.040115344E-02
  1.038955911E-02  1.036973606E-02  1.034151077E-02  1.030512195E-02  1.026099092E-02
  1.020954801E-02  1.015153432E-02  1.008857939E-02  1.012419904E-02  1.008857939E-02
  1.005271541E-02  1.001900235E-02  9.989007364E-03  9.963332172E-03  9.942264767E-03
  9.926685052E-03  9.918208557E-03  9.918208557E-03  9.926685052E-03  9.942264767E-03
  9.963332172E-03  9.989007364E-03  1.001900235E-02  1.005271541E-02  1.008857939E-02
  1.012419904E-02  1.015710768E-02  1.018566752E-02  1.020954801E-02  1.022933931E-02
  1.024552396E-02  1.025781800E-02  1.026568313E-02  1.026945849E-02  1.027062563E-02
  1.027062563E-02  1.026945849E-02  1.026568313E-02  1.025781800E-02  1.024552396E-02
  1.022933931E-02  1.020954801E-02  1.018566752E-02  1.015710768E-02  1.015918955E-02
  1.015710768E-02  1.015153432E-02  1.014407477E-02  1.013625776E-02  1.012865793E-02
  1.012103819E-02  1.011353150E-02  1.010756768E-02  1.010524169E-02  1.010756768E-02
  1.011353150E-02  1.012103819E-02  1.012865793E-02  1.013625776E-02  1.014407477E-02
  1.015153432E-02  1.015710768E-02  1.015918955E-02  1.015710768E-02  1.015153432E-02
  1.014407477E-02  1.013625776E-02  1.012865793E-02  1.012103819E-02  1.011353150E-02
  1.010756768E-02  1.010524169E-02  1.010756768E-02  1.011353150E-02  1.012103819E-02
  1.012865793E-02  1.013625776E-02  1.014407477E-02  1.015153432E-02  1.015710768E-02
  1.012419904E-02  1.015710768E-02  1.018566752E-02  1.020954801E-02  1.022933931E-02
  1.024552396E-02  1.025781800E-02  1.026568313E-02  1.026945849E-02  1.027062563E-02
  1.027062563E-02  1.026945849E-02  1.026568313E-02  1.025781800E-02  1.024552396E-02
  1.022933931E-02  1.020954801E-02  1.018566752E-02  1.015710768E-02  1.012419904E-02
  1.008857939E-02  1.005271541E-02  1.001900235E-02  9.989007364E-03  9.963332172E-03
  9.942264767E-03  9.926685052E-03  9.918208557E-03  9.918208557E-03  9.926685052E-03
  9.942264767E-03  9.963332172E-03  9.989007364E-03  1.001900235E-02  1.005271541E-02
  1.008857939E-02  1.002341969E-02  1.008857939E-02  1.015153432E-02  1.020954801E-02
  1.026099092E-02  1.030512195E-02  1.034151077E-02  1.036973606E-02  1.038955911E-02
  1.040115344E-02  1.040494387E-02  1.040115344E-02  1.038955911E-02  1.036973606E-02
  1.034151077E-02  1.030512195E-02  1.026099092E-02  1.020954801E-02  1.015153432E-02
  1.008857939E-02  1.002341969E-02  9.959440437E-03  9.899867572E-03  9.847137995E-03
  9.802704810E-03  9.767265690E-03  9.741248470E-03  9.725204477E-03  9.719759701E-03
  9.725204477E-03  9.741248470E-03  9.767265690E-03  9.802704810E-03  9.847137995E-03
  9.899867572E-03  9.959440437E-03  9.868718520E-03  9.959440437E-03  1.005271541E-02
  1.014407477E-02  1.022933931E-02  1.030512195E-02  1.036931985E-02  1.042125519E-02
  1.046104944E-02  1.048853216E-02  1.050276516E-02  1.050276516E-02  1.048853216E-02
  1.046104944E-02  1.042125519E-02  1.036931985E-02  1.030512195E-02  1.022933931E-02
  1.014407477E-02  1.005271541E-02  9.959440437E-03  9.868718520E-03  9.784804747E-03
  9.711220780E-03  9.650333826E-03  9.603159003E-03  9.569452645E-03  9.548123633E-03
  9.537880435E-03  9.537880435E-03  9.548123633E-03  9.569452645E-03  9.603159003E-03
  9.650333826E-03  9.711220780E-03  9.784804747E-03  9.679545664E-03  9.784804747E-03
  9.899867572E-03  1.001900235E-02  1.013625776E-02  1.024552396E-02  1.034151077E-02
  1.042125519E-02  1.048438424E-02  1.053128644E-02  1.056098603E-02  1.057128164E-02
  1.056098603E-02  1.053128644E-02  1.048438424E-02  1.042125519E-02  1.034151077E-02
  1.024552396E-02  1.013625776E-02  1.001900235E-02  9.899867572E-03  9.784804747E-03
  9.679545664E-03  9.589511194E-03  9.518975621E-03  9.469777462E-03  9.440427223E-03
  9.426340073E-03  9.421408666E-03  9.420442612E-03  9.421408666E-03  9.426340073E-03
  9.440427223E-03  9.469777462E-03  9.518975621E-03  9.589511194E-03  9.491049747E-03
  9.589511194E-03  9.711220780E-03  9.847137995E-03  9.989007364E-03  1.012865793E-02
  1.025781800E-02  1.036973606E-02  1.046104944E-02  1.053128644E-02  1.058012493E-02
  1.060563468E-02  1.060563468E-02  1.058012493E-02  1.053128644E-02  1.046104944E-02
  1.036973606E-02  1.025781800E-02  1.012865793E-02  9.989007364E-03  9.847137995E-03
  9.711220780E-03  9.589511194E-03  9.491049747E-03  9.424626629E-03  9.395456013E-03
  9.401359204E-03  9.431173612E-03  9.467137639E-03  9.490932722E-03  9.490932722E-03
  9.467137639E-03  9.431173612E-03  9.401359204E-03  9.395456013E-03  9.424626629E-03
  9.385697896E-03  9.424626629E-03  9.518975621E-03  9.650333826E-03  9.802704810E-03
  9.963332172E-03  1.012103819E-02  1.026568313E-02  1.038955911E-02  1.048853216E-02
  1.056098603E-02  1.060563468E-02  1.062080382E-02  1.060563468E-02  1.056098603E-02
  1.048853216E-02  1.038955911E-02  1.026568313E-02  1.012103819E-02  9.963332172E-03
  9.802704810E-03  9.650333826E-03  9.518975621E-03  9.424626629E-03  9.385697896E-03
  9.416955138E-03  9.519825375E-03  9.674717329E-03  9.841373668E-03  9.969705437E-03
  1.001791577E-02  9.969705437E-03  9.841373668E-03  9.674717329E-03  9.519825375E-03
  9.416955138E-03  9.570418080E-03  9.416955138E-03  9.395456013E-03  9.469777462E-03
  9.603159003E-03  9.767265690E-03  9.942264767E-03  1.011353150E-02  1.026945849E-02
  1.040115344E-02  1.050276516E-02  1.057128164E-02  1.060563468E-02  1.060563468E-02
  1.057128164E-02  1.050276516E-02  1.040115344E-02  1.026945849E-02  1.011353150E-02
  9.942264767E-03  9.767265690E-03  9.603159003E-03  9.469777462E-03  9.395456013E-03
  9.416955138E-03  9.570418080E-03  9.872752130E-03  1.030106832E-02  1.078268691E-02
  1.120615207E-02  1.145534294E-02  1.145534294E-02  1.120615207E-02  1.078268691E-02
  1.030106832E-02  9.872752130E-03  1.051751042E-02  9.872752130E-03  9.519825375E-03
  9.401359204E-03  9.440427223E-03  9.569452645E-03  9.741248470E-03  9.926685052E-03
  1.010756768E-02  1.027062563E-02  1.040494387E-02  1.050276516E-02  1.056098603E-02
  1.058012493E-02  1.056098603E-02  1.050276516E-02  1.040494387E-02  1.027062563E-02
  1.010756768E-02  9.926685052E-03  9.741248470E-03  9.569452645E-03  9.440427223E-03
  9.401359204E-03  9.519825375E-03  9.872752130E-03  1.051751042E-02  1.145162959E-02
  1.257733008E-02  1.369153751E-02  1.452428923E-02  1.483451800E-02  1.452428923E-02
  1.369153751E-02  1.257733008E-02  1.145162959E-02  1.320675584E-02  1.145162959E-02
  1.030106832E-02  9.674717329E-03  9.431173612E-03  9.426340073E-03  9.548123633E-03
  9.725204477E-03  9.918208557E-03  1.010524169E-02  1.027062563E-02  1.040115344E-02
  1.048853216E-02  1.053128644E-02  1.053128644E-02  1.048853216E-02  1.040115344E-02
  1.027062563E-02  1.010524169E-02  9.918208557E-03  9.725204477E-03  9.548123633E-03
  9.426340073E-03  9.431173612E-03  9.674717329E-03  1.030106832E-02  1.145162959E-02
  1.320675584E-02  1.551013591E-02  1.808580441E-02  2.040295894E-02  2.180061441E-02
  2.180061441E-02  2.040295894E-02  1.808580441E-02  1.551013591E-02  1.976770456E-02
  1.551013591E-02  1.257733008E-02  1.078268691E-02  9.841373668E-03  9.467137639E-03
  9.421408666E-03  9.537880435E-03  9.719759701E-03  9.918208557E-03  1.010756768E-02
  1.026945849E-02  1.038955911E-02  1.046104944E-02  1.048438424E-02  1.046104944E-02
  1.038955911E-02  1.026945849E-02  1.010756768E-02  9.918208557E-03  9.719759701E-03
  9.537880435E-03  9.421408666E-03  9.467137639E-03  9.841373668E-03  1.078268691E-02
  1.257733008E-02  1.551013591E-02  1.976770456E-02  2.521592821E-02  3.106442508E-02
  3.575988722E-02  3.758210433E-02  3.575988722E-02  3.106442508E-02  2.521592821E-02
  3.575996215E-02  2.521592821E-02  1.808580441E-02  1.369153751E-02  1.120615207E-02
  9.969705437E-03  9.490932722E-03  9.420442612E-03  9.537880435E-03  9.725204477E-03
  9.926685052E-03  1.011353150E-02  1.026568313E-02  1.036973606E-02  1.042125519E-02
  1.042125519E-02  1.036973606E-02  1.026568313E-02  1.011353150E-02  9.926685052E-03
  9.725204477E-03  9.537880435E-03  9.420442612E-03  9.490932722E-03  9.969705437E-03
  1.120615207E-02  1.369153751E-02  1.808580441E-02  2.521592821E-02  3.575996215E-02
  4.926460001E-02  6.292012835E-02  7.181103078E-02  7.181103078E-02  6.292012835E-02
  4.926460001E-02  7.691059036E-02  4.926460001E-02  3.106442508E-02  2.040295894E-02
  1.452428923E-02  1.145534294E-02  1.001791577E-02  9.490932722E-03  9.421408666E-03
  9.548123633E-03  9.741248470E-03  9.942264767E-03  1.012103819E-02  1.025781800E-02
  1.034151077E-02  1.036931985E-02  1.034151077E-02  1.025781800E-02  1.012103819E-02
  9.942264767E-03  9.741248470E-03  9.548123633E-03  9.421408666E-03  9.490932722E-03
  1.001791577E-02  1.145534294E-02  1.452428923E-02  2.040295894E-02  3.106442508E-02
  4.926460001E-02  7.691059036E-02  1.111745929E-01  1.415326379E-01  1.539075412E-01
  1.415326379E-01  1.111745929E-01  1.828962283E-01  1.111745929E-01  6.292012835E-02
  3.575988722E-02  2.180061441E-02  1.483451800E-02  1.145534294E-02  9.969705437E-03
  9.467137639E-03  9.426340073E-03  9.569452645E-03  9.767265690E-03  9.963332172E-03
  1.012865793E-02  1.024552396E-02  1.030512195E-02  1.030512195E-02  1.024552396E-02
  1.012865793E-02  9.963332172E-03  9.767265690E-03  9.569452645E-03  9.426340073E-03
  9.467137639E-03  9.969705437E-03  1.145534294E-02  1.483451800E-02  2.180061441E-02
  3.575988722E-02  6.292012835E-02  1.111745929E-01  1.828962283E-01  2.632437883E-01
  3.186868380E-01  3.186868380E-01  2.632437883E-01  4.289815840E-01  2.632437883E-01
  1.415326379E-01  7.181103078E-02  3.758210433E-02  2.180061441E-02  1.452428923E-02
  1.120615207E-02  9.841373668E-03  9.431173612E-03  9.440427223E-03  9.603159003E-03
  9.802704810E-03  9.989007364E-03  1.013625776E-02  1.022933931E-02  1.026099092E-02
  1.022933931E-02  1.013625776E-02  9.989007364E-03  9.802704810E-03  9.603159003E-03
  9.440427223E-03  9.431173612E-03  9.841373668E-03  1.120615207E-02  1.452428923E-02
  2.180061441E-02  3.758210433E-02  7.181103078E-02  1.415326379E-01  2.632437883E-01
  4.289815840E-01  5.842078218E-01  6.491004245E-01  5.842078218E-01  8.961347815E-01
  5.842078218E-01  3.186868380E-01  1.539075412E-01  7.181103078E-02  3.575988722E-02
  2.040295894E-02  1.369153751E-02  1.078268691E-02  9.674717329E-03  9.401359204E-03
  9.469777462E-03  9.650333826E-03  9.847137995E-03  1.001900235E-02  1.014407477E-02
  1.020954801E-02  1.020954801E-02  1.014407477E-02  1.001900235E-02  9.847137995E-03
  9.650333826E-03  9.469777462E-03  9.401359204E-03  9.674717329E-03  1.078268691E-02
  1.369153751E-02  2.040295894E-02  3.575988722E-02  7.181103078E-02  1.539075412E-01
  3.186868380E-01  5.842078218E-01  8.961347815E-01  1.116613323E+00  1.116613323E+00
  1.563245526E+00  1.116613323E+00  6.491004245E-01  3.186868380E-01  1.415326379E-01
  6.292012835E-02  3.106442508E-02  1.808580441E-02  1.257733008E-02  1.030106832E-02
  9.519825375E-03  9.395456013E-03  9.518975621E-03  9.711220780E-03  9.899867572E-03
  1.005271541E-02  1.015153432E-02  1.018566752E-02  1.015153432E-02  1.005271541E-02
  9.899867572E-03  9.711220780E-03  9.518975621E-03  9.395456013E-03  9.519825375E-03
  1.030106832E-02  1.257733008E-02  1.808580441E-02  3.106442508E-02  6.292012835E-02
  1.415326379E-01  3.186868380E-01  6.491004245E-01  1.116613323E+00  1.563245526E+00
  1.751502316E+00  2.203305963E+00  1.751502316E+00  1.116613323E+00  5.842078218E-01
  2.632437883E-01  1.111745929E-01  4.926460001E-02  2.521592821E-02  1.551013591E-02
  1.145162959E-02  9.872752130E-03  9.416955138E-03  9.424626629E-03  9.589511194E-03
  9.784804747E-03  9.959440437E-03  1.008857939E-02  1.015710768E-02  1.015710768E-02
  1.008857939E-02  9.959440437E-03  9.784804747E-03  9.589511194E-03  9.424626629E-03
  9.416955138E-03  9.872752130E-03  1.145162959E-02  1.551013591E-02  2.521592821E-02
  4.926460001E-02  1.111745929E-01  2.632437883E-01  5.842078218E-01  1.116613323E+00
  1.751502316E+00  2.203305963E+00  1.717713520E+00  1.533300242E+00  1.095731224E+00
  6.375644609E-01  3.135628255E-01  1.396680492E-01  6.238610986E-02  3.102012918E-02
  1.823703503E-02  1.283015035E-02  1.062227904E-02  9.894227127E-03  9.814555533E-03
  9.977101192E-03  1.020329526E-02  1.042008704E-02  1.059407123E-02  1.070597111E-02
  1.074452491E-02  1.070597111E-02  1.059407123E-02  1.042008704E-02  1.020329526E-02
  9.977101192E-03  9.814555533E-03  9.894227127E-03  1.062227904E-02  1.283015035E-02
  1.823703503E-02  3.102012918E-02  6.238610986E-02  1.396680492E-01  3.135628255E-01
  6.375644609E-01  1.095731224E+00  1.533300242E+00  1.533300242E+00  1.533300242E+00
  1.224571325E+00  7.893524466E-01  4.217475411E-01  1.969485891E-01  8.771500338E-02
  4.148807878E-02  2.265327194E-02  1.473700240E-02  1.138190764E-02  1.011481366E-02
  9.804852178E-03  9.886588495E-03  1.009632990E-02  1.032362278E-02  1.052160606E-02
  1.066583235E-02  1.074155786E-02  1.074155786E-02  1.066583235E-02  1.052160606E-02
  1.032362278E-02  1.009632990E-02  9.886588495E-03  9.804852178E-03  1.011481366E-02
  1.138190764E-02  1.473700240E-02  2.265327194E-02  4.148807878E-02  8.771500338E-02
  1.969485891E-01  4.217475411E-01  7.893524466E-01  1.224571325E+00  1.095731224E+00
  1.224571325E+00  1.095731224E+00  7.893524466E-01  4.667866361E-01  2.361359849E-01
  1.098382239E-01  5.188077278E-02  2.732109065E-02  1.686072561E-02  1.231029188E-02
  1.044933316E-02  9.860682928E-03  9.830650555E-03  1.000747359E-02  1.023619569E-02
  1.045204430E-02  1.062389586E-02  1.073360293E-02  1.077120493E-02  1.073360293E-02
  1.062389586E-02  1.045204430E-02  1.023619569E-02  1.000747359E-02  9.830650555E-03
  9.860682928E-03  1.044933316E-02  1.231029188E-02  1.686072561E-02  2.732109065E-02
  5.188077278E-02  1.098382239E-01  2.361359849E-01  4.667866361E-01  7.893524466E-01
  6.375644609E-01  7.893524466E-01  7.893524466E-01  6.375644609E-01  4.217475411E-01
  2.361359849E-01  1.187949692E-01  5.857169237E-02  3.102270365E-02  1.875894063E-02
  1.323434874E-02  1.083751038E-02  9.967781994E-03  9.809715375E-03  9.940203551E-03
  1.016136421E-02  1.038869217E-02  1.058322079E-02  1.072292452E-02  1.079533886E-02
  1.079533886E-02  1.072292452E-02  1.058322079E-02  1.038869217E-02  1.016136421E-02
  9.940203551E-03  9.809715375E-03  9.967781994E-03  1.083751038E-02  1.323434874E-02
  1.875894063E-02  3.102270365E-02  5.857169237E-02  1.187949692E-01  2.361359849E-01
  4.217475411E-01  3.135628255E-01  4.217475411E-01  4.667866361E-01  4.217475411E-01
  3.135628255E-01  1.969485891E-01  1.098382239E-01  5.857169237E-02  3.244969328E-02
  1.989778349E-02  1.392607314E-02  1.118455487E-02  1.009324399E-02  9.816366836E-03
  9.895539606E-03  1.010212569E-02  1.033450797E-02  1.054640605E-02  1.071183353E-02
  1.081541319E-02  1.085042758E-02  1.081541319E-02  1.071183353E-02  1.054640605E-02
  1.033450797E-02  1.010212569E-02  9.895539606E-03  9.816366836E-03  1.009324399E-02
  1.118455487E-02  1.392607314E-02  1.989778349E-02  3.244969328E-02  5.857169237E-02
  1.098382239E-01  1.969485891E-01  1.396680492E-01  1.969485891E-01  2.361359849E-01
  2.361359849E-01  1.969485891E-01  1.396680492E-01  8.771500338E-02  5.188077278E-02
  3.102270365E-02  1.989778349E-02  1.418380087E-02  1.139050346E-02  1.019384524E-02
  9.835936306E-03  9.870881258E-03  1.006010077E-02  1.029194283E-02  1.051538624E-02
  1.070170462E-02  1.083246121E-02  1.089881025E-02  1.089881025E-02  1.083246121E-02
  1.070170462E-02  1.051538624E-02  1.029194283E-02  1.006010077E-02  9.870881258E-03
  9.835936306E-03  1.019384524E-02  1.139050346E-02  1.418380087E-02  1.989778349E-02
  3.102270365E-02  5.188077278E-02  8.771500338E-02  6.238610986E-02  8.771500338E-02
  1.098382239E-01  1.187949692E-01  1.098382239E-01  8.771500338E-02  6.238610986E-02
  4.148807878E-02  2.732109065E-02  1.875894063E-02  1.392607314E-02  1.139050346E-02
  1.023230440E-02  9.851461922E-03  9.860371417E-03  1.003459525E-02  1.026229783E-02
  1.049147027E-02  1.069296473E-02  1.084633526E-02  1.093996707E-02  1.097105889E-02
  1.093996707E-02  1.084633526E-02  1.069296473E-02  1.049147027E-02  1.026229783E-02
  1.003459525E-02  9.860371417E-03  9.851461922E-03  1.023230440E-02  1.139050346E-02
  1.392607314E-02  1.875894063E-02  2.732109065E-02  4.148807878E-02  3.102012918E-02
  4.148807878E-02  5.188077278E-02  5.857169237E-02  5.857169237E-02  5.188077278E-02
  4.148807878E-02  3.102012918E-02  2.265327194E-02  1.686072561E-02  1.323434874E-02
  1.118455487E-02  1.019384524E-02  9.851461922E-03  9.857768005E-03  1.002301825E-02
  1.024531611E-02  1.047537556E-02  1.068583596E-02  1.085629444E-02  1.097280255E-02
  1.103061059E-02  1.103061059E-02  1.097280255E-02  1.085629444E-02  1.068583596E-02
  1.047537556E-02  1.024531611E-02  1.002301825E-02  9.857768005E-03  9.851461922E-03
  1.019384524E-02  1.118455487E-02  1.323434874E-02  1.686072561E-02  2.265327194E-02
  1.823703503E-02  2.265327194E-02  2.732109065E-02  3.102270365E-02  3.244969328E-02
  3.102270365E-02  2.732109065E-02  2.265327194E-02  1.823703503E-02  1.473700240E-02
  1.231029188E-02  1.083751038E-02  1.009324399E-02  9.835936306E-03  9.860371417E-03
  1.002301825E-02  1.023986216E-02  1.046733116E-02  1.068094980E-02  1.086215507E-02
  1.099633959E-02  1.107645903E-02  1.110271405E-02  1.107645903E-02  1.099633959E-02
  1.086215507E-02  1.068094980E-02  1.046733116E-02  1.023986216E-02  1.002301825E-02
  9.860371417E-03  9.835936306E-03  1.009324399E-02  1.083751038E-02  1.231029188E-02
  1.473700240E-02  1.283015035E-02  1.473700240E-02  1.686072561E-02  1.875894063E-02
  1.989778349E-02  1.989778349E-02  1.875894063E-02  1.686072561E-02  1.473700240E-02
  1.283015035E-02  1.138190764E-02  1.044933316E-02  9.967781994E-03  9.816366836E-03
  9.870881258E-03  1.003459525E-02  1.024531611E-02  1.046733116E-02  1.067918100E-02
  1.086465532E-02  1.101028521E-02  1.110782559E-02  1.115574754E-02  1.115574754E-02
  1.110782559E-02  1.101028521E-02  1.086465532E-02  1.067918100E-02  1.046733116E-02
  1.024531611E-02  1.003459525E-02  9.870881258E-03  9.816366836E-03  9.967781994E-03
  1.044933316E-02  1.138190764E-02  1.062227904E-02  1.138190764E-02  1.231029188E-02
  1.323434874E-02  1.392607314E-02  1.418380087E-02  1.392607314E-02  1.323434874E-02
  1.231029188E-02  1.138190764E-02  1.062227904E-02  1.011481366E-02  9.860682928E-03
  9.809715375E-03  9.895539606E-03  1.006010077E-02  1.026229783E-02  1.047537556E-02
  1.068094980E-02  1.086465532E-02  1.101487365E-02  1.112385172E-02  1.118872802E-02
  1.121009337E-02  1.118872802E-02  1.112385172E-02  1.101487365E-02  1.086465532E-02
  1.068094980E-02  1.047537556E-02  1.026229783E-02  1.006010077E-02  9.895539606E-03
  9.809715375E-03  9.860682928E-03  1.011481366E-02  9.894227127E-03  1.011481366E-02
  1.044933316E-02  1.083751038E-02  1.118455487E-02  1.139050346E-02  1.139050346E-02
  1.118455487E-02  1.083751038E-02  1.044933316E-02  1.011481366E-02  9.894227127E-03
  9.804852178E-03  9.830650555E-03  9.940203551E-03  1.010212569E-02  1.029194283E-02
  1.049147027E-02  1.068583596E-02  1.086215507E-02  1.101028521E-02  1.112385172E-02
  1.120001043E-02  1.123807102E-02  1.123807102E-02  1.120001043E-02  1.112385172E-02
  1.101028521E-02  1.086215507E-02  1.068583596E-02  1.049147027E-02  1.029194283E-02
  1.010212569E-02  9.940203551E-03  9.830650555E-03  9.804852178E-03  9.814555533E-03
  9.804852178E-03  9.860682928E-03  9.967781994E-03  1.009324399E-02  1.019384524E-02
  1.023230440E-02  1.019384524E-02  1.009324399E-02  9.967781994E-03  9.860682928E-03
  9.804852178E-03  9.814555533E-03  9.886588495E-03  1.000747359E-02  1.016136421E-02
  1.033450797E-02  1.051538624E-02  1.069296473E-02  1.085629444E-02  1.099633959E-02
  1.110782559E-02  1.118872802E-02  1.123807102E-02  1.125472170E-02  1.123807102E-02
  1.118872802E-02  1.110782559E-02  1.099633959E-02  1.085629444E-02  1.069296473E-02
  1.051538624E-02  1.033450797E-02  1.016136421E-02  1.000747359E-02  9.886588495E-03
  9.977101192E-03  9.886588495E-03  9.830650555E-03  9.809715375E-03  9.816366836E-03
  9.835936306E-03  9.851461922E-03  9.851461922E-03  9.835936306E-03  9.816366836E-03
  9.809715375E-03  9.830650555E-03  9.886588495E-03  9.977101192E-03  1.009632990E-02
  1.023619569E-02  1.038869217E-02  1.054640605E-02  1.070170462E-02  1.084633526E-02
  1.097280255E-02  1.107645903E-02  1.115574754E-02  1.121009337E-02  1.123807102E-02
  1.123807102E-02  1.121009337E-02  1.115574754E-02  1.107645903E-02  1.097280255E-02
  1.084633526E-02  1.070170462E-02  1.054640605E-02  1.038869217E-02  1.023619569E-02
  1.009632990E-02  1.020329526E-02  1.009632990E-02  1.000747359E-02  9.940203551E-03
  9.895539606E-03  9.870881258E-03  9.860371417E-03  9.857768005E-03  9.860371417E-03
  9.870881258E-03  9.895539606E-03  9.940203551E-03  1.000747359E-02  1.009632990E-02
  1.020329526E-02  1.032362278E-02  1.045204430E-02  1.058322079E-02  1.071183353E-02
  1.083246121E-02  1.093996707E-02  1.103061059E-02  1.110271405E-02  1.115574754E-02
  1.118872802E-02  1.120001043E-02  1.118872802E-02  1.115574754E-02  1.110271405E-02
  1.103061059E-02  1.093996707E-02  1.083246121E-02  1.071183353E-02  1.058322079E-02
  1.045204430E-02  1.032362278E-02  1.042008704E-02  1.032362278E-02  1.023619569E-02
  1.016136421E-02  1.010212569E-02  1.006010077E-02  1.003459525E-02  1.002301825E-02
  1.002301825E-02  1.003459525E-02  1.006010077E-02  1.010212569E-02  1.016136421E-02
  1.023619569E-02  1.032362278E-02  1.042008704E-02  1.052160606E-02  1.062389586E-02
  1.072292452E-02  1.081541319E-02  1.089881025E-02  1.097105889E-02  1.103061059E-02
  1.107645903E-02  1.110782559E-02  1.112385172E-02  1.112385172E-02  1.110782559E-02
  1.107645903E-02  1.103061059E-02  1.097105889E-02  1.089881025E-02  1.081541319E-02
  1.072292452E-02  1.062389586E-02  1.052160606E-02  1.059407123E-02  1.052160606E-02
  1.045204430E-02  1.038869217E-02  1.033450797E-02  1.029194283E-02  1.026229783E-02
  1.024531611E-02  1.023986216E-02  1.024531611E-02  1.026229783E-02  1.029194283E-02
  1.033450797E-02  1.038869217E-02  1.045204430E-02  1.052160606E-02  1.059407123E-02
  1.066583235E-02  1.073360293E-02  1.079533886E-02  1.085042758E-02  1.089881025E-02
  1.093996707E-02  1.097280255E-02  1.099633959E-02  1.101028521E-02  1.101487365E-02
  1.101028521E-02  1.099633959E-02  1.097280255E-02  1.093996707E-02  1.089881025E-02
  1.085042758E-02  1.079533886E-02  1.073360293E-02  1.066583235E-02  1.070597111E-02
  1.066583235E-02  1.062389586E-02  1.058322079E-02  1.054640605E-02  1.051538624E-02
  1.049147027E-02  1.047537556E-02  1.046733116E-02  1.046733116E-02  1.047537556E-02
  1.049147027E-02  1.051538624E-02  1.054640605E-02  1.058322079E-02  1.062389586E-02
  1.066583235E-02  1.070597111E-02  1.074155786E-02  1.077120493E-02  1.079533886E-02
  1.081541319E-02  1.083246121E-02  1.084633526E-02  1.085629444E-02  1.086215507E-02
  1.086465532E-02  1.086465532E-02  1.086215507E-02  1.085629444E-02  1.084633526E-02
  1.083246121E-02  1.081541319E-02  1.079533886E-02  1.077120493E-02  1.074155786E-02
  1.074452491E-02  1.074155786E-02  1.073360293E-02  1.072292452E-02  1.071183353E-02
  1.070170462E-02  1.069296473E-02  1.068583596E-02  1.068094980E-02  1.067918100E-02
  1.068094980E-02  1.068583596E-02  1.069296473E-02  1.070170462E-02  1.071183353E-02
  1.072292452E-02  1.073360293E-02  1.074155786E-02  1.074452491E-02  1.074155786E-02
  1.073360293E-02  1.072292452E-02  1.071183353E-02  1.070170462E-02  1.069296473E-02
  1.068583596E-02  1.068094980E-02  1.067918100E-02  1.068094980E-02  1.068583596E-02
  1.069296473E-02  1.070170462E-02  1.071183353E-02  1.072292452E-02  1.073360293E-02
  1.074155786E-02  1.070597111E-02  1.074155786E-02  1.077120493E-02  1.079533886E-02
  1.081541319E-02  1.083246121E-02  1.084633526E-02  1.085629444E-02  1.086215507E-02
  1.086465532E-02  1.086465532E-02  1.086215507E-02  1.085629444E-02  1.084633526E-02
  1.083246121E-02  1.081541319E-02  1.079533886E-02  1.077120493E-02  1.074155786E-02
  1.070597111E-02  1.066583235E-02  1.062389586E-02  1.058322079E-02  1.054640605E-02
  1.051538624E-02  1.049147027E-02  1.047537556E-02  1.046733116E-02  1.046733116E-02
  1.047537556E-02  1.049147027E-02  1.051538624E-02  1.054640605E-02  1.058322079E-02
  1.062389586E-02  1.066583235E-02  1.059407123E-02  1.066583235E-02  1.073360293E-02
  1.079533886E-02  1.085042758E-02  1.089881025E-02  1.093996707E-02  1.097280255E-02
  1.099633959E-02  1.101028521E-02  1.101487365E-02  1.101028521E-02  1.099633959E-02
  1.097280255E-02  1.093996707E-02  1.089881025E-02  1.085042758E-02  1.079533886E-02
  1.073360293E-02  1.066583235E-02  1.059407123E-02  1.052160606E-02  1.045204430E-02
  1.038869217E-02  1.033450797E-02  1.029194283E-02  1.026229783E-02  1.024531611E-02
  1.023986216E-02  1.024531611E-02  1.026229783E-02  1.029194283E-02  1.033450797E-02
  1.038869217E-02  1.045204430E-02  1.052160606E-02  1.042008704E-02  1.052160606E-02
  1.062389586E-02  1.072292452E-02  1.081541319E-02  1.089881025E-02  1.097105889E-02
  1.103061059E-02  1.107645903E-02  1.110782559E-02  1.112385172E-02  1.112385172E-02
  1.110782559E-02  1.107645903E-02  1.103061059E-02  1.097105889E-02  1.089881025E-02
  1.081541319E-02  1.072292452E-02  1.062389586E-02  1.052160606E-02  1.042008704E-02
  1.032362278E-02  1.023619569E-02  1.016136421E-02  1.010212569E-02  1.006010077E-02
  1.003459525E-02  1.002301825E-02  1.002301825E-02  1.003459525E-02  1.006010077E-02
  1.010212569E-02  1.016136421E-02  1.023619569E-02  1.032362278E-02  1.020329526E-02
  1.032362278E-02  1.045204430E-02  1.058322079E-02  1.071183353E-02  1.083246121E-02
  1.093996707E-02  1.103061059E-02  1.110271405E-02  1.115574754E-02  1.118872802E-02
  1.120001043E-02  1.118872802E-02  1.115574754E-02  1.110271405E-02  1.103061059E-02
  1.093996707E-02  1.083246121E-02  1.071183353E-02  1.058322079E-02  1.045204430E-02
  1.032362278E-02  1.020329526E-02  1.009632990E-02  1.000747359E-02  9.940203551E-03
  9.895539606E-03  9.870881258E-03  9.860371417E-03  9.857768005E-03  9.860371417E-03
  9.870881258E-03  9.895539606E-03  9.940203551E-03  1.000747359E-02  1.009632990E-02
  9.977101192E-03  1.009632990E-02  1.023619569E-02  1.038869217E-02  1.054640605E-02
  1.070170462E-02  1.084633526E-02  1.097280255E-02  1.107645903E-02  1.115574754E-02
  1.121009337E-02  1.123807102E-02  1.123807102E-02  1.121009337E-02  1.115574754E-02
  1.107645903E-02  1.097280255E-02  1.084633526E-02  1.070170462E-02  1.054640605E-02
  1.038869217E-02  1.023619569E-02  1.009632990E-02  9.977101192E-03  9.886588495E-03
  9.830650555E-03  9.809715375E-03  9.816366836E-03  9.835936306E-03  9.851461922E-03
  9.851461922E-03  9.835936306E-03  9.816366836E-03  9.809715375E-03  9.830650555E-03
  9.886588495E-03  9.814555533E-03  9.886588495E-03  1.000747359E-02  1.016136421E-02
  1.033450797E-02  1.051538624E-02  1.069296473E-02  1.085629444E-02  1.099633959E-02
  1.110782559E-02  1.118872802E-02  1.123807102E-02  1.125472170E-02  1.123807102E-02
  1.118872802E-02  1.110782559E-02  1.099633959E-02  1.085629444E-02  1.069296473E-02
  1.051538624E-02  1.033450797E-02  1.016136421E-02  1.000747359E-02  9.886588495E-03
  9.814555533E-03  9.804852178E-03  9.860682928E-03  9.967781994E-03  1.009324399E-02
  1.019384524E-02  1.023230440E-02  1.019384524E-02  1.009324399E-02  9.967781994E-03
  9.860682928E-03  9.804852178E-03  9.894227127E-03  9.804852178E-03  9.830650555E-03
  9.940203551E-03  1.010212569E-02  1.029194283E-02  1.049147027E-02  1.068583596E-02
  1.086215507E-02  1.101028521E-02  1.112385172E-02  1.120001043E-02  1.123807102E-02
  1.123807102E-02  1.120001043E-02  1.112385172E-02  1.101028521E-02  1.086215507E-02
  1.068583596E-02  1.049147027E-02  1.029194283E-02  1.010212569E-02  9.940203551E-03
  9.830650555E-03  9.804852178E-03  9.894227127E-03  1.011481366E-02  1.044933316E-02
  1.083751038E-02  1.118455487E-02  1.139050346E-02  1.139050346E-02  1.118455487E-02
  1.083751038E-02  1.044933316E-02  1.011481366E-02  1.062227904E-02  1.011481366E-02
  9.860682928E-03  9.809715375E-03  9.895539606E-03  1.006010077E-02  1.026229783E-02
  1.047537556E-02  1.068094980E-02  1.086465532E-02  1.101487365E-02  1.112385172E-02
  1.118872802E-02  1.121009337E-02  1.118872802E-02  1.112385172E-02  1.101487365E-02
  1.086465532E-02  1.068094980E-02  1.047537556E-02  1.026229783E-02  1.006010077E-02
  9.895539606E-03  9.809715375E-03  9.860682928E-03  1.011481366E-02  1.062227904E-02
  1.138190764E-02  1.231029188E-02  1.323434874E-02  1.392607314E-02  1.418380087E-02
  1.392607314E-02  1.323434874E-02  1.231029188E-02  1.138190764E-02  1.283015035E-02
  1.138190764E-02  1.044933316E-02  9.967781994E-03  9.816366836E-03  9.870881258E-03
  1.003459525E-02  1.024531611E-02  1.046733116E-02  1.067918100E-02  1.086465532E-02
  1.101028521E-02  1.110782559E-02  1.115574754E-02  1.115574754E-02  1.110782559E-02
  1.101028521E-02  1.086465532E-02  1.067918100E-02  1.046733116E-02  1.024531611E-02
  1.003459525E-02  9.870881258E-03  9.816366836E-03  9.967781994E-03  1.044933316E-02
  1.138190764E-02  1.283015035E-02  1.473700240E-02  1.686072561E-02  1.875894063E-02
  1.989778349E-02  1.989778349E-02  1.875894063E-02  1.686072561E-02  1.473700240E-02
  1.823703503E-02  1.473700240E-02  1.231029188E-02  1.083751038E-02  1.009324399E-02
  9.835936306E-03  9.860371417E-03  1.002301825E-02  1.023986216E-02  1.046733116E-02
  1.068094980E-02  1.086215507E-02  1.099633959E-02  1.107645903E-02  1.110271405E-02
  1.107645903E-02  1.099633959E-02  1.086215507E-02  1.068094980E-02  1.046733116E-02
  1.023986216E-02  1.002301825E-02  9.860371417E-03  9.835936306E-03  1.009324399E-02
  1.083751038E-02  1.231029188E-02  1.473700240E-02  1.823703503E-02  2.265327194E-02
  2.732109065E-02  3.102270365E-02  3.244969328E-02  3.102270365E-02  2.732109065E-02
  2.265327194E-02  3.102012918E-02  2.265327194E-02  1.686072561E-02  1.323434874E-02
  1.118455487E-02  1.019384524E-02  9.851461922E-03  9.857768005E-03  1.002301825E-02
  1.024531611E-02  1.047537556E-02  1.068583596E-02  1.085629444E-02  1.097280255E-02
  1.103061059E-02  1.103061059E-02  1.097280255E-02  1.085629444E-02  1.068583596E-02
  1.047537556E-02  1.024531611E-02  1.002301825E-02  9.857768005E-03  9.851461922E-03
  1.019384524E-02  1.118455487E-02  1.323434874E-02  1.686072561E-02  2.265327194E-02
  3.102012918E-02  4.148807878E-02  5.188077278E-02  5.857169237E-02  5.857169237E-02
  5.188077278E-02  4.148807878E-02  6.238610986E-02  4.148807878E-02  2.732109065E-02
  1.875894063E-02  1.392607314E-02  1.139050346E-02  1.023230440E-02  9.851461922E-03
  9.860371417E-03  1.003459525E-02  1.026229783E-02  1.049147027E-02  1.069296473E-02
  1.084633526E-02  1.093996707E-02  1.097105889E-02  1.093996707E-02  1.084633526E-02
  1.069296473E-02  1.049147027E-02  1.026229783E-02  1.003459525E-02  9.860371417E-03
  9.851461922E-03  1.023230440E-02  1.139050346E-02  1.392607314E-02  1.875894063E-02
  2.732109065E-02  4.148807878E-02  6.238610986E-02  8.771500338E-02  1.098382239E-01
  1.187949692E-01  1.098382239E-01  8.771500338E-02  1.396680492E-01  8.771500338E-02
  5.188077278E-02  3.102270365E-02  1.989778349E-02  1.418380087E-02  1.139050346E-02
  1.019384524E-02  9.835936306E-03  9.870881258E-03  1.006010077E-02  1.029194283E-02
  1.051538624E-02  1.070170462E-02  1.083246121E-02  1.089881025E-02  1.089881025E-02
  1.083246121E-02  1.070170462E-02  1.051538624E-02  1.029194283E-02  1.006010077E-02
  9.870881258E-03  9.835936306E-03  1.019384524E-02  1.139050346E-02  1.418380087E-02
  1.989778349E-02  3.102270365E-02  5.188077278E-02  8.771500338E-02  1.396680492E-01
  1.969485891E-01  2.361359849E-01  2.361359849E-01  1.969485891E-01  3.135628255E-01
  1.969485891E-01  1.098382239E-01  5.857169237E-02  3.244969328E-02  1.989778349E-02
  1.392607314E-02  1.118455487E-02  1.009324399E-02  9.816366836E-03  9.895539606E-03
  1.010212569E-02  1.033450797E-02  1.054640605E-02  1.071183353E-02  1.081541319E-02
  1.085042758E-02  1.081541319E-02  1.071183353E-02  1.054640605E-02  1.033450797E-02
  1.010212569E-02  9.895539606E-03  9.816366836E-03  1.009324399E-02  1.118455487E-02
  1.392607314E-02  1.989778349E-02  3.244969328E-02  5.857169237E-02  1.098382239E-01
  1.969485891E-01  3.135628255E-01  4.217475411E-01  4.667866361E-01  4.217475411E-01
  6.375644609E-01  4.217475411E-01  2.361359849E-01  1.187949692E-01  5.857169237E-02
  3.102270365E-02  1.875894063E-02  1.323434874E-02  1.083751038E-02  9.967781994E-03
  9.809715375E-03  9.940203551E-03  1.016136421E-02  1.038869217E-02  1.058322079E-02
  1.072292452E-02  1.079533886E-02  1.079533886E-02  1.072292452E-02  1.058322079E-02
  1.038869217E-02  1.016136421E-02  9.940203551E-03  9.809715375E-03  9.967781994E-03
  1.083751038E-02  1.323434874E-02  1.875894063E-02  3.102270365E-02  5.857169237E-02
  1.187949692E-01  2.361359849E-01  4.217475411E-01  6.375644609E-01  7.893524466E-01
  7.893524466E-01  1.095731224E+00  7.893524466E-01  4.667866361E-01  2.361359849E-01
  1.098382239E-01  5.188077278E-02  2.732109065E-02  1.686072561E-02  1.231029188E-02
  1.044933316E-02  9.860682928E-03  9.830650555E-03  1.000747359E-02  1.023619569E-02
  1.045204430E-02  1.062389586E-02  1.073360293E-02  1.077120493E-02  1.073360293E-02
  1.062389586E-02  1.045204430E-02  1.023619569E-02  1.000747359E-02  9.830650555E-03
  9.860682928E-03  1.044933316E-02  1.231029188E-02  1.686072561E-02  2.732109065E-02
  5.188077278E-02  1.098382239E-01  2.361359849E-01  4.667866361E-01  7.893524466E-01
  1.095731224E+00  1.224571325E+00  1.533300242E+00  1.224571325E+00  7.893524466E-01
  4.217475411E-01  1.969485891E-01  8.771500338E-02  4.148807878E-02  2.265327194E-02
  1.473700240E-02  1.138190764E-02  1.011481366E-02  9.804852178E-03  9.886588495E-03
  1.009632990E-02  1.032362278E-02  1.052160606E-02  1.066583235E-02  1.074155786E-02
  1.074155786E-02  1.066583235E-02  1.052160606E-02  1.032362278E-02  1.009632990E-02
  9.886588495E-03  9.804852178E-03  1.011481366E-02  1.138190764E-02  1.473700240E-02
  2.265327194E-02  4.148807878E-02  8.771500338E-02  1.969485891E-01  4.217475411E-01
  7.893524466E-01  1.224571325E+00  1.533300242E+00  9.510925505E-01  8.528405169E-01
  6.187155985E-01  3.709900594E-01  1.921458604E-01  9.258983330E-02  4.575772806E-02
  2.529738524E-02  1.635325154E-02  1.243894735E-02  1.088925357E-02  1.047131140E-02
  1.054748927E-02  1.080135070E-02  1.109196817E-02  1.135768116E-02  1.156633848E-02
  1.169841736E-02  1.174347921E-02  1.169841736E-02  1.156633848E-02  1.135768116E-02
  1.109196817E-02  1.080135070E-02  1.054748927E-02  1.047131140E-02  1.088925357E-02
  1.243894735E-02  1.635325154E-02  2.529738524E-02  4.575772806E-02  9.258983330E-02
  1.921458604E-01  3.709900594E-01  6.187155985E-01  8.528405169E-01  8.528405169E-01
  8.528405169E-01  6.878307957E-01  4.534932218E-01  2.524514420E-01  1.259273137E-01
  6.147143668E-02  3.230577079E-02  1.950040918E-02  1.382070777E-02  1.140705488E-02
  1.057500833E-02  1.047648565E-02  1.067263246E-02  1.095714635E-02  1.124054130E-02
  1.148039355E-02  1.165200613E-02  1.174092623E-02  1.174092623E-02  1.165200613E-02
  1.148039355E-02  1.124054130E-02  1.095714635E-02  1.067263246E-02  1.047648565E-02
  1.057500833E-02  1.140705488E-02  1.382070777E-02  1.950040918E-02  3.230577079E-02
  6.147143668E-02  1.259273137E-01  2.524514420E-01  4.534932218E-01  6.878307957E-01
  6.187155985E-01  6.878307957E-01  6.187155985E-01  4.534932218E-01  2.773493050E-01
  1.483726912E-01  7.486392117E-02  3.906877472E-02  2.276045883E-02  1.536098547E-02
  1.206511158E-02  1.077670899E-02  1.046382578E-02  1.057660856E-02  1.084063576E-02
  1.113283911E-02  1.139747350E-02  1.160394995E-02  1.173378352E-02  1.177787179E-02
  1.173378352E-02  1.160394995E-02  1.139747350E-02  1.113283911E-02  1.084063576E-02
  1.057660856E-02  1.046382578E-02  1.077670899E-02  1.206511158E-02  1.536098547E-02
  2.276045883E-02  3.906877472E-02  7.486392117E-02  1.483726912E-01  2.773493050E-01
  4.534932218E-01  3.709900594E-01  4.534932218E-01  4.534932218E-01  3.709900594E-01
  2.524514420E-01  1.483726912E-01  8.022133637E-02  4.334503007E-02  2.530145249E-02
  1.673006546E-02  1.273145627E-02  1.103249545E-02  1.050111361E-02  1.051563102E-02
  1.074660076E-02  1.103831814E-02  1.132057588E-02  1.155651475E-02  1.172334028E-02
  1.180883362E-02  1.180883362E-02  1.172334028E-02  1.155651475E-02  1.132057588E-02
  1.103831814E-02  1.074660076E-02  1.051563102E-02  1.050111361E-02  1.103249545E-02
  1.273145627E-02  1.673006546E-02  2.530145249E-02  4.334503007E-02  8.022133637E-02
  1.483726912E-01  2.524514420E-01  1.921458604E-01  2.524514420E-01  2.773493050E-01
  2.524514420E-01  1.921458604E-01  1.259273137E-01  7.486392117E-02  4.334503007E-02
  2.627161039E-02  1.754668736E-02  1.323379506E-02  1.127087643E-02  1.056525808E-02
  1.048642135E-02  1.067813372E-02  1.096125406E-02  1.125329277E-02  1.151217343E-02
  1.171118826E-02  1.183441075E-02  1.187579345E-02  1.183441075E-02  1.171118826E-02
  1.151217343E-02  1.125329277E-02  1.096125406E-02  1.067813372E-02  1.048642135E-02
  1.056525808E-02  1.127087643E-02  1.323379506E-02  1.754668736E-02  2.627161039E-02
  4.334503007E-02  7.486392117E-02  1.259273137E-01  9.258983330E-02  1.259273137E-01
  1.483726912E-01  1.483726912E-01  1.259273137E-01  9.258983330E-02  6.147143668E-02
  3.906877472E-02  2.530145249E-02  1.754668736E-02  1.342139668E-02  1.141515558E-02
  1.062368827E-02  1.047908259E-02  1.063517204E-02  1.090520320E-02  1.119972754E-02
  1.147393917E-02  1.169897602E-02  1.185534975E-02  1.193422344E-02  1.193422344E-02
  1.185534975E-02  1.169897602E-02  1.147393917E-02  1.119972754E-02  1.090520320E-02
  1.063517204E-02  1.047908259E-02  1.062368827E-02  1.141515558E-02  1.342139668E-02
  1.754668736E-02  2.530145249E-02  3.906877472E-02  6.147143668E-02  4.575772806E-02
  6.147143668E-02  7.486392117E-02  8.022133637E-02  7.486392117E-02  6.147143668E-02
  4.575772806E-02  3.230577079E-02  2.276045883E-02  1.673006546E-02  1.323379506E-02
  1.141515558E-02  1.064711332E-02  1.048027596E-02  1.061347561E-02  1.087070020E-02
  1.116266726E-02  1.144470853E-02  1.168829632E-02  1.187196944E-02  1.198362524E-02
  1.202066009E-02  1.198362524E-02  1.187196944E-02  1.168829632E-02  1.144470853E-02
  1.116266726E-02  1.087070020E-02  1.061347561E-02  1.048027596E-02  1.064711332E-02
  1.141515558E-02  1.323379506E-02  1.673006546E-02  2.276045883E-02  3.230577079E-02
  2.529738524E-02  3.230577079E-02  3.906877472E-02  4.334503007E-02  4.334503007E-02
  3.906877472E-02  3.230577079E-02  2.529738524E-02  1.950040918E-02  1.536098547E-02
  1.273145627E-02  1.127087643E-02  1.062368827E-02  1.048027596E-02  1.060716635E-02
  1.085498482E-02  1.114196409E-02  1.142589824E-02  1.168037446E-02  1.188427390E-02
  1.202313263E-02  1.209210107E-02  1.209210107E-02  1.202313263E-02  1.188427390E-02
  1.168037446E-02  1.142589824E-02  1.114196409E-02  1.085498482E-02  1.060716635E-02
  1.048027596E-02  1.062368827E-02  1.127087643E-02  1.273145627E-02  1.536098547E-02
  1.950040918E-02  1.635325154E-02  1.950040918E-02  2.276045883E-02  2.530145249E-02
  2.627161039E-02  2.530145249E-02  2.276045883E-02  1.950040918E-02  1.635325154E-02
  1.382070777E-02  1.206511158E-02  1.103249545E-02  1.056525808E-02  1.047908259E-02
  1.061347561E-02  1.085498482E-02  1.113547775E-02  1.141702565E-02  1.167571440E-02
  1.189230484E-02  1.205186818E-02  1.214731727E-02  1.217871776E-02  1.214731727E-02
  1.205186818E-02  1.189230484E-02  1.167571440E-02  1.141702565E-02  1.113547775E-02
  1.085498482E-02  1.061347561E-02  1.047908259E-02  1.056525808E-02  1.103249545E-02
  1.206511158E-02  1.382070777E-02  1.243894735E-02  1.382070777E-02  1.536098547E-02
  1.673006546E-02  1.754668736E-02  1.754668736E-02  1.673006546E-02  1.536098547E-02
  1.382070777E-02  1.243894735E-02  1.140705488E-02  1.077670899E-02  1.050111361E-02
  1.048642135E-02  1.063517204E-02  1.087070020E-02  1.114196409E-02  1.141702565E-02
  1.167421022E-02  1.189623945E-02  1.206927124E-02  1.218520590E-02  1.224245948E-02
  1.224245948E-02  1.218520590E-02  1.206927124E-02  1.189623945E-02  1.167421022E-02
  1.141702565E-02  1.114196409E-02  1.087070020E-02  1.063517204E-02  1.048642135E-02
  1.050111361E-02  1.077670899E-02  1.140705488E-02  1.088925357E-02  1.140705488E-02
  1.206511158E-02  1.273145627E-02  1.323379506E-02  1.342139668E-02  1.323379506E-02
  1.273145627E-02  1.206511158E-02  1.140705488E-02  1.088925357E-02  1.057500833E-02
  1.046382578E-02  1.051563102E-02  1.067813372E-02  1.090520320E-02  1.116266726E-02
  1.142589824E-02  1.167571440E-02  1.189623945E-02  1.207509372E-02  1.220459202E-02
  1.228197559E-02  1.230757789E-02  1.228197559E-02  1.220459202E-02  1.207509372E-02
  1.189623945E-02  1.167571440E-02  1.142589824E-02  1.116266726E-02  1.090520320E-02
  1.067813372E-02  1.051563102E-02  1.046382578E-02  1.057500833E-02  1.047131140E-02
  1.057500833E-02  1.077670899E-02  1.103249545E-02  1.127087643E-02  1.141515558E-02
  1.141515558E-02  1.127087643E-02  1.103249545E-02  1.077670899E-02  1.057500833E-02
  1.047131140E-02  1.047648565E-02  1.057660856E-02  1.074660076E-02  1.096125406E-02
  1.119972754E-02  1.144470853E-02  1.168037446E-02  1.189230484E-02  1.206927124E-02
  1.220459202E-02  1.229544984E-02  1.234099735E-02  1.234099735E-02  1.229544984E-02
  1.220459202E-02  1.206927124E-02  1.189230484E-02  1.168037446E-02  1.144470853E-02
  1.119972754E-02  1.096125406E-02  1.074660076E-02  1.057660856E-02  1.047648565E-02
  1.054748927E-02  1.047648565E-02  1.046382578E-02  1.050111361E-02  1.056525808E-02
  1.062368827E-02  1.064711332E-02  1.062368827E-02  1.056525808E-02  1.050111361E-02
  1.046382578E-02  1.047648565E-02  1.054748927E-02  1.067263246E-02  1.084063576E-02
  1.103831814E-02  1.125329277E-02  1.147393917E-02  1.168829632E-02  1.188427390E-02
  1.205186818E-02  1.218520590E-02  1.228197559E-02  1.234099735E-02  1.236091211E-02
  1.234099735E-02  1.228197559E-02  1.218520590E-02  1.205186818E-02  1.188427390E-02
  1.168829632E-02  1.147393917E-02  1.125329277E-02  1.103831814E-02  1.084063576E-02
  1.067263246E-02  1.080135070E-02  1.067263246E-02  1.057660856E-02  1.051563102E-02
  1.048642135E-02  1.047908259E-02  1.048027596E-02  1.048027596E-02  1.047908259E-02
  1.048642135E-02  1.051563102E-02  1.057660856E-02  1.067263246E-02  1.080135070E-02
  1.095714635E-02  1.113283911E-02  1.132057588E-02  1.151217343E-02  1.169897602E-02
  1.187196944E-02  1.202313263E-02  1.214731727E-02  1.224245948E-02  1.230757789E-02
  1.234099735E-02  1.234099735E-02  1.230757789E-02  1.224245948E-02  1.214731727E-02
  1.202313263E-02  1.187196944E-02  1.169897602E-02  1.151217343E-02  1.132057588E-02
  1.113283911E-02  1.095714635E-02  1.109196817E-02  1.095714635E-02  1.084063576E-02
  1.074660076E-02  1.067813372E-02  1.063517204E-02  1.061347561E-02  1.060716635E-02
  1.061347561E-02  1.063517204E-02  1.067813372E-02  1.074660076E-02  1.084063576E-02
  1.095714635E-02  1.109196817E-02  1.124054130E-02  1.139747350E-02  1.155651475E-02
  1.171118826E-02  1.185534975E-02  1.198362524E-02  1.209210107E-02  1.217871776E-02
  1.224245948E-02  1.228197559E-02  1.229544984E-02  1.228197559E-02  1.224245948E-02
  1.217871776E-02  1.209210107E-02  1.198362524E-02  1.185534975E-02  1.171118826E-02
  1.155651475E-02  1.139747350E-02  1.124054130E-02  1.135768116E-02  1.124054130E-02
  1.113283911E-02  1.103831814E-02  1.096125406E-02  1.090520320E-02  1.087070020E-02
  1.085498482E-02  1.085498482E-02  1.087070020E-02  1.090520320E-02  1.096125406E-02
  1.103831814E-02  1.113283911E-02  1.124054130E-02  1.135768116E-02  1.148039355E-02
  1.160394995E-02  1.172334028E-02  1.183441075E-02  1.193422344E-02  1.202066009E-02
  1.209210107E-02  1.214731727E-02  1.218520590E-02  1.220459202E-02  1.220459202E-02
  1.218520590E-02  1.214731727E-02  1.209210107E-02  1.202066009E-02  1.193422344E-02
  1.183441075E-02  1.172334028E-02  1.160394995E-02  1.148039355E-02  1.156633848E-02
  1.148039355E-02  1.139747350E-02  1.132057588E-02  1.125329277E-02  1.119972754E-02
  1.116266726E-02  1.114196409E-02  1.113547775E-02  1.114196409E-02  1.116266726E-02
  1.119972754E-02  1.125329277E-02  1.132057588E-02  1.139747350E-02  1.148039355E-02
  1.156633848E-02  1.165200613E-02  1.173378352E-02  1.180883362E-02  1.187579345E-02
  1.193422344E-02  1.198362524E-02  1.202313263E-02  1.205186818E-02  1.206927124E-02
  1.207509372E-02  1.206927124E-02  1.205186818E-02  1.202313263E-02  1.198362524E-02
  1.193422344E-02  1.187579345E-02  1.180883362E-02  1.173378352E-02  1.165200613E-02
  1.169841736E-02  1.165200613E-02  1.160394995E-02  1.155651475E-02  1.151217343E-02
  1.147393917E-02  1.144470853E-02  1.142589824E-02  1.141702565E-02  1.141702565E-02
  1.142589824E-02  1.144470853E-02  1.147393917E-02  1.151217343E-02  1.155651475E-02
  1.160394995E-02  1.165200613E-02  1.169841736E-02  1.174092623E-02  1.177787179E-02
  1.180883362E-02  1.183441075E-02  1.185534975E-02  1.187196944E-02  1.188427390E-02
  1.189230484E-02  1.189623945E-02  1.189623945E-02  1.189230484E-02  1.188427390E-02
  1.187196944E-02  1.185534975E-02  1.183441075E-02  1.180883362E-02  1.177787179E-02
  1.174092623E-02  1.174347921E-02  1.174092623E-02  1.173378352E-02  1.172334028E-02
  1.171118826E-02  1.169897602E-02  1.168829632E-02  1.168037446E-02  1.167571440E-02
  1.167421022E-02  1.167571440E-02  1.168037446E-02  1.168829632E-02  1.169897602E-02
  1.171118826E-02  1.172334028E-02  1.173378352E-02  1.174092623E-02  1.174347921E-02
  1.174092623E-02  1.173378352E-02  1.172334028E-02  1.171118826E-02  1.169897602E-02
  1.168829632E-02  1.168037446E-02  1.167571440E-02  1.167421022E-02  1.167571440E-02
  1.168037446E-02  1.168829632E-02  1.169897602E-02  1.171118826E-02  1.172334028E-02
  1.173378352E-02  1.174092623E-02  1.169841736E-02  1.174092623E-02  1.177787179E-02
  1.180883362E-02  1.183441075E-02  1.185534975E-02  1.187196944E-02  1.188427390E-02
  1.189230484E-02  1.189623945E-02  1.189623945E-02  1.189230484E-02  1.188427390E-02
  1.187196944E-02  1.185534975E-02  1.183441075E-02  1.180883362E-02  1.177787179E-02
  1.174092623E-02  1.169841736E-02  1.165200613E-02  1.160394995E-02  1.155651475E-02
  1.151217343E-02  1.147393917E-02  1.144470853E-02  1.142589824E-02  1.141702565E-02
  1.141702565E-02  1.142589824E-02  1.144470853E-02  1.147393917E-02  1.151217343E-02
  1.155651475E-02  1.160394995E-02  1.165200613E-02  1.156633848E-02  1.165200613E-02
  1.173378352E-02  1.180883362E-02  1.187579345E-02  1.193422344E-02  1.198362524E-02
  1.202313263E-02  1.205186818E-02  1.206927124E-02  1.207509372E-02  1.206927124E-02
[...]
  1.078268691E-02  1.369153751E-02  2.040295894E-02  3.575988722E-02  7.181103078E-02
  1.539075412E-01  3.186868380E-01  5.842078218E-01  4.289815840E-01  5.842078218E-01
  6.491004245E-01  5.842078218E-01  4.289815840E-01  2.632437883E-01  1.415326379E-01
  7.181103078E-02  3.758210433E-02  2.180061441E-02  1.452428923E-02  1.120615207E-02
  9.841373668E-03  9.431173612E-03  9.440427223E-03  9.603159003E-03  9.802704810E-03
  9.989007364E-03  1.013625776E-02  1.022933931E-02  1.026099092E-02  1.022933931E-02
  1.013625776E-02  9.989007364E-03  9.802704810E-03  9.603159003E-03  9.440427223E-03
  9.431173612E-03  9.841373668E-03  1.120615207E-02  1.452428923E-02  2.180061441E-02
  3.758210433E-02  7.181103078E-02  1.415326379E-01  2.632437883E-01  1.828962283E-01
  2.632437883E-01  3.186868380E-01  3.186868380E-01  2.632437883E-01  1.828962283E-01
  1.111745929E-01  6.292012835E-02  3.575988722E-02  2.180061441E-02  1.483451800E-02
  1.145534294E-02  9.969705437E-03  9.467137639E-03  9.426340073E-03  9.569452645E-03
  9.767265690E-03  9.963332172E-03  1.012865793E-02  1.024552396E-02  1.030512195E-02
  1.030512195E-02  1.024552396E-02  1.012865793E-02  9.963332172E-03  9.767265690E-03
  9.569452645E-03  9.426340073E-03  9.467137639E-03  9.969705437E-03  1.145534294E-02
  1.483451800E-02  2.180061441E-02  3.575988722E-02  6.292012835E-02  1.111745929E-01
  7.691059036E-02  1.111745929E-01  1.415326379E-01  1.539075412E-01  1.415326379E-01
  1.111745929E-01  7.691059036E-02  4.926460001E-02  3.106442508E-02  2.040295894E-02
  1.452428923E-02  1.145534294E-02  1.001791577E-02  9.490932722E-03  9.421408666E-03
  9.548123633E-03  9.741248470E-03  9.942264767E-03  1.012103819E-02  1.025781800E-02
  1.034151077E-02  1.036931985E-02  1.034151077E-02  1.025781800E-02  1.012103819E-02
  9.942264767E-03  9.741248470E-03  9.548123633E-03  9.421408666E-03  9.490932722E-03
  1.001791577E-02  1.145534294E-02  1.452428923E-02  2.040295894E-02  3.106442508E-02
  4.926460001E-02  3.575996215E-02  4.926460001E-02  6.292012835E-02  7.181103078E-02
  7.181103078E-02  6.292012835E-02  4.926460001E-02  3.575996215E-02  2.521592821E-02
  1.808580441E-02  1.369153751E-02  1.120615207E-02  9.969705437E-03  9.490932722E-03
  9.420442612E-03  9.537880435E-03  9.725204477E-03  9.926685052E-03  1.011353150E-02
  1.026568313E-02  1.036973606E-02  1.042125519E-02  1.042125519E-02  1.036973606E-02
  1.026568313E-02  1.011353150E-02  9.926685052E-03  9.725204477E-03  9.537880435E-03
  9.420442612E-03  9.490932722E-03  9.969705437E-03  1.120615207E-02  1.369153751E-02
  1.808580441E-02  2.521592821E-02  1.976770456E-02  2.521592821E-02  3.106442508E-02
  3.575988722E-02  3.758210433E-02  3.575988722E-02  3.106442508E-02  2.521592821E-02
  1.976770456E-02  1.551013591E-02  1.257733008E-02  1.078268691E-02  9.841373668E-03
  9.467137639E-03  9.421408666E-03  9.537880435E-03  9.719759701E-03  9.918208557E-03
  1.010756768E-02  1.026945849E-02  1.038955911E-02  1.046104944E-02  1.048438424E-02
  1.046104944E-02  1.038955911E-02  1.026945849E-02  1.010756768E-02  9.918208557E-03
  9.719759701E-03  9.537880435E-03  9.421408666E-03  9.467137639E-03  9.841373668E-03
  1.078268691E-02  1.257733008E-02  1.551013591E-02  1.320675584E-02  1.551013591E-02
  1.808580441E-02  2.040295894E-02  2.180061441E-02  2.180061441E-02  2.040295894E-02
  1.808580441E-02  1.551013591E-02  1.320675584E-02  1.145162959E-02  1.030106832E-02
  9.674717329E-03  9.431173612E-03  9.426340073E-03  9.548123633E-03  9.725204477E-03
  9.918208557E-03  1.010524169E-02  1.027062563E-02  1.040115344E-02  1.048853216E-02
  1.053128644E-02  1.053128644E-02  1.048853216E-02  1.040115344E-02  1.027062563E-02
  1.010524169E-02  9.918208557E-03  9.725204477E-03  9.548123633E-03  9.426340073E-03
  9.431173612E-03  9.674717329E-03  1.030106832E-02  1.145162959E-02  1.051751042E-02
  1.145162959E-02  1.257733008E-02  1.369153751E-02  1.452428923E-02  1.483451800E-02
  1.452428923E-02  1.369153751E-02  1.257733008E-02  1.145162959E-02  1.051751042E-02
  9.872752130E-03  9.519825375E-03  9.401359204E-03  9.440427223E-03  9.569452645E-03
  9.741248470E-03  9.926685052E-03  1.010756768E-02  1.027062563E-02  1.040494387E-02
  1.050276516E-02  1.056098603E-02  1.058012493E-02  1.056098603E-02  1.050276516E-02
  1.040494387E-02  1.027062563E-02  1.010756768E-02  9.926685052E-03  9.741248470E-03
  9.569452645E-03  9.440427223E-03  9.401359204E-03  9.519825375E-03  9.872752130E-03
  9.570418080E-03  9.872752130E-03  1.030106832E-02  1.078268691E-02  1.120615207E-02
  1.145534294E-02  1.145534294E-02  1.120615207E-02  1.078268691E-02  1.030106832E-02
  9.872752130E-03  9.570418080E-03  9.416955138E-03  9.395456013E-03  9.469777462E-03
  9.603159003E-03  9.767265690E-03  9.942264767E-03  1.011353150E-02  1.026945849E-02
  1.040115344E-02  1.050276516E-02  1.057128164E-02  1.060563468E-02  1.060563468E-02
  1.057128164E-02  1.050276516E-02  1.040115344E-02  1.026945849E-02  1.011353150E-02
  9.942264767E-03  9.767265690E-03  9.603159003E-03  9.469777462E-03  9.395456013E-03
  9.416955138E-03  9.385697896E-03  9.416955138E-03  9.519825375E-03  9.674717329E-03
  9.841373668E-03  9.969705437E-03  1.001791577E-02  9.969705437E-03  9.841373668E-03
  9.674717329E-03  9.519825375E-03  9.416955138E-03  9.385697896E-03  9.424626629E-03
  9.518975621E-03  9.650333826E-03  9.802704810E-03  9.963332172E-03  1.012103819E-02
  1.026568313E-02  1.038955911E-02  1.048853216E-02  1.056098603E-02  1.060563468E-02
  1.062080382E-02  1.060563468E-02  1.056098603E-02  1.048853216E-02  1.038955911E-02
  1.026568313E-02  1.012103819E-02  9.963332172E-03  9.802704810E-03  9.650333826E-03
  9.518975621E-03  9.424626629E-03  9.491049747E-03  9.424626629E-03  9.395456013E-03
  9.401359204E-03  9.431173612E-03  9.467137639E-03  9.490932722E-03  9.490932722E-03
  9.467137639E-03  9.431173612E-03  9.401359204E-03  9.395456013E-03  9.424626629E-03
  9.491049747E-03  9.589511194E-03  9.711220780E-03  9.847137995E-03  9.989007364E-03
  1.012865793E-02  1.025781800E-02  1.036973606E-02  1.046104944E-02  1.053128644E-02
  1.058012493E-02  1.060563468E-02  1.060563468E-02  1.058012493E-02  1.053128644E-02
  1.046104944E-02  1.036973606E-02  1.025781800E-02  1.012865793E-02  9.989007364E-03
  9.847137995E-03  9.711220780E-03  9.589511194E-03  9.679545664E-03  9.589511194E-03
  9.518975621E-03  9.469777462E-03  9.440427223E-03  9.426340073E-03  9.421408666E-03
  9.420442612E-03  9.421408666E-03  9.426340073E-03  9.440427223E-03  9.469777462E-03
  9.518975621E-03  9.589511194E-03  9.679545664E-03  9.784804747E-03  9.899867572E-03
  1.001900235E-02  1.013625776E-02  1.024552396E-02  1.034151077E-02  1.042125519E-02
  1.048438424E-02  1.053128644E-02  1.056098603E-02  1.057128164E-02  1.056098603E-02
  1.053128644E-02  1.048438424E-02  1.042125519E-02  1.034151077E-02  1.024552396E-02
  1.013625776E-02  1.001900235E-02  9.899867572E-03  9.784804747E-03  9.868718520E-03
  9.784804747E-03  9.711220780E-03  9.650333826E-03  9.603159003E-03  9.569452645E-03
  9.548123633E-03  9.537880435E-03  9.537880435E-03  9.548123633E-03  9.569452645E-03
  9.603159003E-03  9.650333826E-03  9.711220780E-03  9.784804747E-03  9.868718520E-03
  9.959440437E-03  1.005271541E-02  1.014407477E-02  1.022933931E-02  1.030512195E-02
  1.036931985E-02  1.042125519E-02  1.046104944E-02  1.048853216E-02  1.050276516E-02
  1.050276516E-02  1.048853216E-02  1.046104944E-02  1.042125519E-02  1.036931985E-02
  1.030512195E-02  1.022933931E-02  1.014407477E-02  1.005271541E-02  9.959440437E-03
  1.002341969E-02  9.959440437E-03  9.899867572E-03  9.847137995E-03  9.802704810E-03
  9.767265690E-03  9.741248470E-03  9.725204477E-03  9.719759701E-03  9.725204477E-03
  9.741248470E-03  9.767265690E-03  9.802704810E-03  9.847137995E-03  9.899867572E-03
  9.959440437E-03  1.002341969E-02  1.008857939E-02  1.015153432E-02  1.020954801E-02
  1.026099092E-02  1.030512195E-02  1.034151077E-02  1.036973606E-02  1.038955911E-02
  1.040115344E-02  1.040494387E-02  1.040115344E-02  1.038955911E-02  1.036973606E-02
  1.034151077E-02  1.030512195E-02  1.026099092E-02  1.020954801E-02  1.015153432E-02
  1.008857939E-02  1.012419904E-02  1.008857939E-02  1.005271541E-02  1.001900235E-02
  9.989007364E-03  9.963332172E-03  9.942264767E-03  9.926685052E-03  9.918208557E-03
  9.918208557E-03  9.926685052E-03  9.942264767E-03  9.963332172E-03  9.989007364E-03
  1.001900235E-02  1.005271541E-02  1.008857939E-02  1.012419904E-02  1.015710768E-02
  1.018566752E-02  1.020954801E-02  1.022933931E-02  1.024552396E-02  1.025781800E-02
  1.026568313E-02  1.026945849E-02  1.027062563E-02  1.027062563E-02  1.026945849E-02
  1.026568313E-02  1.025781800E-02  1.024552396E-02  1.022933931E-02  1.020954801E-02
  1.018566752E-02  1.015710768E-02  1.015918955E-02  1.015710768E-02  1.015153432E-02
  1.014407477E-02  1.013625776E-02  1.012865793E-02  1.012103819E-02  1.011353150E-02
  1.010756768E-02  1.010524169E-02  1.010756768E-02  1.011353150E-02  1.012103819E-02
  1.012865793E-02  1.013625776E-02  1.014407477E-02  1.015153432E-02  1.015710768E-02
  1.015918955E-02  1.015710768E-02  1.015153432E-02  1.014407477E-02  1.013625776E-02
  1.012865793E-02  1.012103819E-02  1.011353150E-02  1.010756768E-02  1.010524169E-02
  1.010756768E-02  1.011353150E-02  1.012103819E-02  1.012865793E-02  1.013625776E-02
  1.014407477E-02  1.015153432E-02  1.015710768E-02  1.012419904E-02  1.015710768E-02
  1.018566752E-02  1.020954801E-02  1.022933931E-02  1.024552396E-02  1.025781800E-02
  1.026568313E-02  1.026945849E-02  1.027062563E-02  1.027062563E-02  1.026945849E-02
  1.026568313E-02  1.025781800E-02  1.024552396E-02  1.022933931E-02  1.020954801E-02
  1.018566752E-02  1.015710768E-02  1.012419904E-02  1.008857939E-02  1.005271541E-02
  1.001900235E-02  9.989007364E-03  9.963332172E-03  9.942264767E-03  9.926685052E-03
  9.918208557E-03  9.918208557E-03  9.926685052E-03  9.942264767E-03  9.963332172E-03
  9.989007364E-03  1.001900235E-02  1.005271541E-02  1.008857939E-02  1.002341969E-02
  1.008857939E-02  1.015153432E-02  1.020954801E-02  1.026099092E-02  1.030512195E-02
  1.034151077E-02  1.036973606E-02  1.038955911E-02  1.040115344E-02  1.040494387E-02
  1.040115344E-02  1.038955911E-02  1.036973606E-02  1.034151077E-02  1.030512195E-02
  1.026099092E-02  1.020954801E-02  1.015153432E-02  1.008857939E-02  1.002341969E-02
  9.959440437E-03  9.899867572E-03  9.847137995E-03  9.802704810E-03  9.767265690E-03
  9.741248470E-03  9.725204477E-03  9.719759701E-03  9.725204477E-03  9.741248470E-03
  9.767265690E-03  9.802704810E-03  9.847137995E-03  9.899867572E-03  9.959440437E-03
  9.868718520E-03  9.959440437E-03  1.005271541E-02  1.014407477E-02  1.022933931E-02
  1.030512195E-02  1.036931985E-02  1.042125519E-02  1.046104944E-02  1.048853216E-02
  1.050276516E-02  1.050276516E-02  1.048853216E-02  1.046104944E-02  1.042125519E-02
  1.036931985E-02  1.030512195E-02  1.022933931E-02  1.014407477E-02  1.005271541E-02
  9.959440437E-03  9.868718520E-03  9.784804747E-03  9.711220780E-03  9.650333826E-03
  9.603159003E-03  9.569452645E-03  9.548123633E-03  9.537880435E-03  9.537880435E-03
  9.548123633E-03  9.569452645E-03  9.603159003E-03  9.650333826E-03  9.711220780E-03
  9.784804747E-03  9.679545664E-03  9.784804747E-03  9.899867572E-03  1.001900235E-02
  1.013625776E-02  1.024552396E-02  1.034151077E-02  1.042125519E-02  1.048438424E-02
  1.053128644E-02  1.056098603E-02  1.057128164E-02  1.056098603E-02  1.053128644E-02
  1.048438424E-02  1.042125519E-02  1.034151077E-02  1.024552396E-02  1.013625776E-02
  1.001900235E-02  9.899867572E-03  9.784804747E-03  9.679545664E-03  9.589511194E-03
  9.518975621E-03  9.469777462E-03  9.440427223E-03  9.426340073E-03  9.421408666E-03
  9.420442612E-03  9.421408666E-03  9.426340073E-03  9.440427223E-03  9.469777462E-03
  9.518975621E-03  9.589511194E-03  9.491049747E-03  9.589511194E-03  9.711220780E-03
  9.847137995E-03  9.989007364E-03  1.012865793E-02  1.025781800E-02  1.036973606E-02
  1.046104944E-02  1.053128644E-02  1.058012493E-02  1.060563468E-02  1.060563468E-02
  1.058012493E-02  1.053128644E-02  1.046104944E-02  1.036973606E-02  1.025781800E-02
  1.012865793E-02  9.989007364E-03  9.847137995E-03  9.711220780E-03  9.589511194E-03
  9.491049747E-03  9.424626629E-03  9.395456013E-03  9.401359204E-03  9.431173612E-03
  9.467137639E-03  9.490932722E-03  9.490932722E-03  9.467137639E-03  9.431173612E-03
  9.401359204E-03  9.395456013E-03  9.424626629E-03  9.385697896E-03  9.424626629E-03
  9.518975621E-03  9.650333826E-03  9.802704810E-03  9.963332172E-03  1.012103819E-02
  1.026568313E-02  1.038955911E-02  1.048853216E-02  1.056098603E-02  1.060563468E-02
  1.062080382E-02  1.060563468E-02  1.056098603E-02  1.048853216E-02  1.038955911E-02
  1.026568313E-02  1.012103819E-02  9.963332172E-03  9.802704810E-03  9.650333826E-03
  9.518975621E-03  9.424626629E-03  9.385697896E-03  9.416955138E-03  9.519825375E-03
  9.674717329E-03  9.841373668E-03  9.969705437E-03  1.001791577E-02  9.969705437E-03
  9.841373668E-03  9.674717329E-03  9.519825375E-03  9.416955138E-03  9.570418080E-03
  9.416955138E-03  9.395456013E-03  9.469777462E-03  9.603159003E-03  9.767265690E-03
  9.942264767E-03  1.011353150E-02  1.026945849E-02  1.040115344E-02  1.050276516E-02
  1.057128164E-02  1.060563468E-02  1.060563468E-02  1.057128164E-02  1.050276516E-02
  1.040115344E-02  1.026945849E-02  1.011353150E-02  9.942264767E-03  9.767265690E-03
  9.603159003E-03  9.469777462E-03  9.395456013E-03  9.416955138E-03  9.570418080E-03
  9.872752130E-03  1.030106832E-02  1.078268691E-02  1.120615207E-02  1.145534294E-02
  1.145534294E-02  1.120615207E-02  1.078268691E-02  1.030106832E-02  9.872752130E-03
  1.051751042E-02  9.872752130E-03  9.519825375E-03  9.401359204E-03  9.440427223E-03
  9.569452645E-03  9.741248470E-03  9.926685052E-03  1.010756768E-02  1.027062563E-02
  1.040494387E-02  1.050276516E-02  1.056098603E-02  1.058012493E-02  1.056098603E-02
  1.050276516E-02  1.040494387E-02  1.027062563E-02  1.010756768E-02  9.926685052E-03
  9.741248470E-03  9.569452645E-03  9.440427223E-03  9.401359204E-03  9.519825375E-03
  9.872752130E-03  1.051751042E-02  1.145162959E-02  1.257733008E-02  1.369153751E-02
  1.452428923E-02  1.483451800E-02  1.452428923E-02  1.369153751E-02  1.257733008E-02
  1.145162959E-02  1.320675584E-02  1.145162959E-02  1.030106832E-02  9.674717329E-03
  9.431173612E-03  9.426340073E-03  9.548123633E-03  9.725204477E-03  9.918208557E-03
  1.010524169E-02  1.027062563E-02  1.040115344E-02  1.048853216E-02  1.053128644E-02
  1.053128644E-02  1.048853216E-02  1.040115344E-02  1.027062563E-02  1.010524169E-02
  9.918208557E-03  9.725204477E-03  9.548123633E-03  9.426340073E-03  9.431173612E-03
  9.674717329E-03  1.030106832E-02  1.145162959E-02  1.320675584E-02  1.551013591E-02
  1.808580441E-02  2.040295894E-02  2.180061441E-02  2.180061441E-02  2.040295894E-02
  1.808580441E-02  1.551013591E-02  1.976770456E-02  1.551013591E-02  1.257733008E-02
  1.078268691E-02  9.841373668E-03  9.467137639E-03  9.421408666E-03  9.537880435E-03
  9.719759701E-03  9.918208557E-03  1.010756768E-02  1.026945849E-02  1.038955911E-02
  1.046104944E-02  1.048438424E-02  1.046104944E-02  1.038955911E-02  1.026945849E-02
  1.010756768E-02  9.918208557E-03  9.719759701E-03  9.537880435E-03  9.421408666E-03
  9.467137639E-03  9.841373668E-03  1.078268691E-02  1.257733008E-02  1.551013591E-02
  1.976770456E-02  2.521592821E-02  3.106442508E-02  3.575988722E-02  3.758210433E-02
  3.575988722E-02  3.106442508E-02  2.521592821E-02  3.575996215E-02  2.521592821E-02
  1.808580441E-02  1.369153751E-02  1.120615207E-02  9.969705437E-03  9.490932722E-03
  9.420442612E-03  9.537880435E-03  9.725204477E-03  9.926685052E-03  1.011353150E-02
  1.026568313E-02  1.036973606E-02  1.042125519E-02  1.042125519E-02  1.036973606E-02
  1.026568313E-02  1.011353150E-02  9.926685052E-03  9.725204477E-03  9.537880435E-03
  9.420442612E-03  9.490932722E-03  9.969705437E-03  1.120615207E-02  1.369153751E-02
  1.808580441E-02  2.521592821E-02  3.575996215E-02  4.926460001E-02  6.292012835E-02
  7.181103078E-02  7.181103078E-02  6.292012835E-02  4.926460001E-02  7.691059036E-02
  4.926460001E-02  3.106442508E-02  2.040295894E-02  1.452428923E-02  1.145534294E-02
  1.001791577E-02  9.490932722E-03  9.421408666E-03  9.548123633E-03  9.741248470E-03
  9.942264767E-03  1.012103819E-02  1.025781800E-02  1.034151077E-02  1.036931985E-02
  1.034151077E-02  1.025781800E-02  1.012103819E-02  9.942264767E-03  9.741248470E-03
  9.548123633E-03  9.421408666E-03  9.490932722E-03  1.001791577E-02  1.145534294E-02
  1.452428923E-02  2.040295894E-02  3.106442508E-02  4.926460001E-02  7.691059036E-02
  1.111745929E-01  1.415326379E-01  1.539075412E-01  1.415326379E-01  1.111745929E-01
  1.828962283E-01  1.111745929E-01  6.292012835E-02  3.575988722E-02  2.180061441E-02
  1.483451800E-02  1.145534294E-02  9.969705437E-03  9.467137639E-03  9.426340073E-03
  9.569452645E-03  9.767265690E-03  9.963332172E-03  1.012865793E-02  1.024552396E-02
  1.030512195E-02  1.030512195E-02  1.024552396E-02  1.012865793E-02  9.963332172E-03
  9.767265690E-03  9.569452645E-03  9.426340073E-03  9.467137639E-03  9.969705437E-03
  1.145534294E-02  1.483451800E-02  2.180061441E-02  3.575988722E-02  6.292012835E-02
  1.111745929E-01  1.828962283E-01  2.632437883E-01  3.186868380E-01  3.186868380E-01
  2.632437883E-01  4.289815840E-01  2.632437883E-01  1.415326379E-01  7.181103078E-02
  3.758210433E-02  2.180061441E-02  1.452428923E-02  1.120615207E-02  9.841373668E-03
  9.431173612E-03  9.440427223E-03  9.603159003E-03  9.802704810E-03  9.989007364E-03
  1.013625776E-02  1.022933931E-02  1.026099092E-02  1.022933931E-02  1.013625776E-02
  9.989007364E-03  9.802704810E-03  9.603159003E-03  9.440427223E-03  9.431173612E-03
  9.841373668E-03  1.120615207E-02  1.452428923E-02  2.180061441E-02  3.758210433E-02
  7.181103078E-02  1.415326379E-01  2.632437883E-01  4.289815840E-01  5.842078218E-01
  6.491004245E-01  5.842078218E-01  8.961347815E-01  5.842078218E-01  3.186868380E-01
  1.539075412E-01  7.181103078E-02  3.575988722E-02  2.040295894E-02  1.369153751E-02
  1.078268691E-02  9.674717329E-03  9.401359204E-03  9.469777462E-03  9.650333826E-03
  9.847137995E-03  1.001900235E-02  1.014407477E-02  1.020954801E-02  1.020954801E-02
  1.014407477E-02  1.001900235E-02  9.847137995E-03  9.650333826E-03  9.469777462E-03
  9.401359204E-03  9.674717329E-03  1.078268691E-02  1.369153751E-02  2.040295894E-02
  3.575988722E-02  7.181103078E-02  1.539075412E-01  3.186868380E-01  5.842078218E-01
  8.961347815E-01  1.116613323E+00  1.116613323E+00  1.563245526E+00  1.116613323E+00
  6.491004245E-01  3.186868380E-01  1.415326379E-01  6.292012835E-02  3.106442508E-02
  1.808580441E-02  1.257733008E-02  1.030106832E-02  9.519825375E-03  9.395456013E-03
  9.518975621E-03  9.711220780E-03  9.899867572E-03  1.005271541E-02  1.015153432E-02
  1.018566752E-02  1.015153432E-02  1.005271541E-02  9.899867572E-03  9.711220780E-03
  9.518975621E-03  9.395456013E-03  9.519825375E-03  1.030106832E-02  1.257733008E-02
  1.808580441E-02  3.106442508E-02  6.292012835E-02  1.415326379E-01  3.186868380E-01
  6.491004245E-01  1.116613323E+00  1.563245526E+00  1.751502316E+00  2.203305963E+00
  1.751502316E+00  1.116613323E+00  5.842078218E-01  2.632437883E-01  1.111745929E-01
  4.926460001E-02  2.521592821E-02  1.551013591E-02  1.145162959E-02  9.872752130E-03
  9.416955138E-03  9.424626629E-03  9.589511194E-03  9.784804747E-03  9.959440437E-03
  1.008857939E-02  1.015710768E-02  1.015710768E-02  1.008857939E-02  9.959440437E-03
  9.784804747E-03  9.589511194E-03  9.424626629E-03  9.416955138E-03  9.872752130E-03
  1.145162959E-02  1.551013591E-02  2.521592821E-02  4.926460001E-02  1.111745929E-01
  2.632437883E-01  5.842078218E-01  1.116613323E+00  1.751502316E+00  2.203305963E+00
