
     Program PWSCF v.7.3 starts on 14Dec2024 at 23:37:23 

     This program is part of the open-source Quantum ESPRESSO suite
     for quantum simulation of materials; please cite
         "P. Giannozzi et al., J. Phys.:Condens. Matter 21 395502 (2009);
         "P. Giannozzi et al., J. Phys.:Condens. Matter 29 465901 (2017);
         "P. Giannozzi et al., J. Chem. Phys. 152 154105 (2020);
          URL http://www.quantum-espresso.org", 
     in publications or presentations arising from this work. More details at
     http://www.quantum-espresso.org/quote

     Serial version
     4839 MiB available memory on the printing compute node when the environment starts

     Waiting for input...
     Reading input from standard input

     Current dimensions of program PWSCF are:
     Max number of different atomic species (ntypx) = 10
     Max number of k-points (npk) =  40000
     Max angular momentum in pseudopotentials (lmaxx) =  4

     Atomic positions and unit cell read from directory:
     ./tmp/LiB2.save/



     G-vector sticks info
     --------------------
     sticks:   dense  smooth     PW     G-vecs:    dense   smooth      PW
     Sum         859     859    253                24143    24143    3887

     Using Slab Decomposition



     bravais-lattice index     =            4
     lattice parameter (alat)  =       5.6185  a.u.
     unit-cell volume          =     178.7906 (a.u.)^3
     number of atoms/cell      =            3
     number of atomic types    =            2
     number of electrons       =         9.00
     number of Kohn-Sham states=            9
     kinetic-energy cutoff     =     100.0000  Ry
     charge density cutoff     =     400.0000  Ry
     Exchange-correlation= PBE
                           (   1   4   3   4   0   0   0)

     celldm(1)=   5.618500  celldm(2)=   0.000000  celldm(3)=   1.164000
     celldm(4)=   0.000000  celldm(5)=   0.000000  celldm(6)=   0.000000

     crystal axes: (cart. coord. in units of alat)
               a(1) = (   1.000000   0.000000   0.000000 )  
               a(2) = (  -0.500000   0.866025   0.000000 )  
               a(3) = (   0.000000   0.000000   1.164000 )  

     reciprocal axes: (cart. coord. in units 2 pi/alat)
               b(1) = (  1.000000  0.577350 -0.000000 )  
               b(2) = (  0.000000  1.154701  0.000000 )  
               b(3) = (  0.000000 -0.000000  0.859107 )  


     PseudoPot. # 1 for Li read from file:
     ./PSEUDO/Li_ONCV_PBE_sr.upf
     MD5 check sum: 50ff420e78310ffa21704f3361e624a4
     Pseudo is Norm-conserving, Zval =  3.0
     Generated using ONCVPSP code by D. R. Hamann
     Using radial grid of 1944 points,  4 beta functions with: 
                l(1) =   0
                l(2) =   0
                l(3) =   1
                l(4) =   1

     PseudoPot. # 2 for B  read from file:
     ./PSEUDO/B_ONCV_PBE_sr.upf
     MD5 check sum: 12e13f68e8dc593c0a1d43390bab284b
     Pseudo is Norm-conserving + core correction, Zval =  3.0
     Generated using ONCVPSP code by D. R. Hamann
     Using radial grid of 1534 points,  4 beta functions with: 
                l(1) =   0
                l(2) =   0
                l(3) =   1
                l(4) =   1

     atomic species   valence    mass     pseudopotential
     Li                3.00     6.94000     Li( 1.00)
     B                 3.00    10.81000     B ( 1.00)

     24 Sym. Ops., with inversion, found



   Cartesian axes

     site n.     atom                  positions (alat units)
         1        Li     tau(   1) = (   0.0000000   0.0000000   0.0000000  )
         2        B      tau(   2) = (   0.0000000   0.5773503   0.5820000  )
         3        B      tau(   3) = (   0.5000000   0.2886751   0.5820000  )

     number of k points=   133 (tetrahedron method)

     Number of k-points >= 100: set verbosity='high' to print them.

     Dense  grid:    24143 G-vectors     FFT dimensions: (  36,  36,  45)

     Estimated max dynamical RAM per process >      12.19 MB

     The potential is recalculated from file :
     ./tmp/LiB2.save/charge-density

     Starting wfcs are   10 randomized atomic wfcs

     Band Structure Calculation
     Davidson diagonalization with overlap

     ethr =  1.11E-08,  avg # of iterations = 30.5

     total cpu time spent up to now is       40.9 secs

     End of band structure calculation

     Number of k-points >= 100: set verbosity='high' to print the bands.

     the Fermi energy is     5.2849 ev
     (compare with:     5.2849 eV, computed in scf)

     Writing all to output data dir ./tmp/LiB2.save/ :
     XML data file, pseudopotentials, collected wavefunctions

     init_run     :      0.37s CPU      0.40s WALL (       1 calls)
     electrons    :     39.41s CPU     40.35s WALL (       1 calls)

     Called by init_run:
     wfcinit      :      0.00s CPU      0.00s WALL (       1 calls)
     potinit      :      0.02s CPU      0.03s WALL (       1 calls)
     hinit0       :      0.31s CPU      0.33s WALL (       1 calls)

     Called by electrons:
     c_bands      :     39.33s CPU     40.26s WALL (       1 calls)
     v_of_rho     :      0.02s CPU      0.03s WALL (       1 calls)

     Called by c_bands:
     init_us_2    :      0.11s CPU      0.13s WALL (     133 calls)
     init_us_2:cp :      0.10s CPU      0.13s WALL (     133 calls)
     cegterg      :     36.63s CPU     37.31s WALL (     267 calls)

     Called by *egterg:
     cdiaghg      :      0.50s CPU      0.53s WALL (    4187 calls)
     h_psi        :     29.38s CPU     29.62s WALL (    4454 calls)
     g_psi        :      0.23s CPU      0.25s WALL (    4054 calls)

     Called by h_psi:
     h_psi:calbec :      2.92s CPU      1.40s WALL (    4454 calls)
     vloc_psi     :     23.99s CPU     25.59s WALL (    4454 calls)
     add_vuspsi   :      2.29s CPU      2.44s WALL (    4454 calls)

     General routines
     calbec       :      2.90s CPU      1.38s WALL (    4454 calls)
     fft          :      0.17s CPU      0.18s WALL (      11 calls)
     fftw         :     20.16s CPU     21.53s WALL (   43960 calls)
     davcio       :      0.03s CPU      0.05s WALL (     266 calls)


     PWSCF        :     39.99s CPU     41.12s WALL


   This run was terminated on:  23:38: 4  14Dec2024            

=------------------------------------------------------------------------------=
   JOB DONE.
=------------------------------------------------------------------------------=
