
     Program BANDS v.7.3 starts on 14Dec2024 at 23:37: 4 

     This program is part of the open-source Quantum ESPRESSO suite
     for quantum simulation of materials; please cite
         "P. Giannozzi et al., J. Phys.:Condens. Matter 21 395502 (2009);
         "P. Giannozzi et al., J. Phys.:Condens. Matter 29 465901 (2017);
         "P. Giannozzi et al., J. Chem. Phys. 152 154105 (2020);
          URL http://www.quantum-espresso.org", 
     in publications or presentations arising from this work. More details at
     http://www.quantum-espresso.org/quote

     Serial version
     4812 MiB available memory on the printing compute node when the environment starts


     Reading xml data from directory:

     ./tmp/LiB2.save/

     IMPORTANT: XC functional enforced from input :
     Exchange-correlation= PBE
                           (   1   4   3   4   0   0   0)
     Any further DFT definition will be discarded
     Please, verify this is what you really want


     G-vector sticks info
     --------------------
     sticks:   dense  smooth     PW     G-vecs:    dense   smooth      PW
     Sum         685     685    199                17341    17341    2823

     Using Slab Decomposition

     Reading collected, re-writing distributed wavefunctions
     high-symmetry point:  0.0000 0.0000 0.0000   x coordinate   0.0000
     high-symmetry point:  0.5000 0.2887 0.0000   x coordinate   0.5774
     high-symmetry point:  0.6667 0.0000 0.0000   x coordinate   0.9107
     high-symmetry point:  0.0000 0.0000 0.0000   x coordinate   1.5774
     high-symmetry point:  0.0000 0.0000 0.4296   x coordinate   2.0069
     high-symmetry point:  0.5000 0.2887 0.4296   x coordinate   2.5843

     Plottable bands (eV) written to file LiB2.bands.dat.gnu
     Bands written to file LiB2.bands.dat

 **************************************************************************

                    xk=(   0.00000,   0.00000,   0.00000  )

     point group D_6h(6/mmm)
     there are 12 classes
     the character table:

       E     2C6   2C3   C2    3C2'  3C2'' i     2S3   2S6   s_h   3s_d  3s_v 
A_1g   1.00  1.00  1.00  1.00  1.00  1.00  1.00  1.00  1.00  1.00  1.00  1.00
A_2g   1.00  1.00  1.00  1.00 -1.00 -1.00  1.00  1.00  1.00  1.00 -1.00 -1.00
B_1g   1.00 -1.00  1.00 -1.00  1.00 -1.00  1.00 -1.00  1.00 -1.00  1.00 -1.00
B_2g   1.00 -1.00  1.00 -1.00 -1.00  1.00  1.00 -1.00  1.00 -1.00 -1.00  1.00
E_1g   2.00  1.00 -1.00 -2.00  0.00  0.00  2.00  1.00 -1.00 -2.00  0.00  0.00
E_2g   2.00 -1.00 -1.00  2.00  0.00  0.00  2.00 -1.00 -1.00  2.00  0.00  0.00
A_1u   1.00  1.00  1.00  1.00  1.00  1.00 -1.00 -1.00 -1.00 -1.00 -1.00 -1.00
A_2u   1.00  1.00  1.00  1.00 -1.00 -1.00 -1.00 -1.00 -1.00 -1.00  1.00  1.00
B_1u   1.00 -1.00  1.00 -1.00  1.00 -1.00 -1.00  1.00 -1.00  1.00 -1.00  1.00
B_2u   1.00 -1.00  1.00 -1.00 -1.00  1.00 -1.00  1.00 -1.00  1.00  1.00 -1.00
E_1u   2.00  1.00 -1.00 -2.00  0.00  0.00 -2.00 -1.00  1.00  2.00  0.00  0.00
E_2u   2.00 -1.00 -1.00  2.00  0.00  0.00 -2.00  1.00  1.00 -2.00  0.00  0.00

     the symmetry operations in each class and the name of the first element:

     E        1
                                                                 
     2C6      5    6
                                                                 
     2C3      7    8
                                                                 
     C2       2
                                                                 
     3C2'     4   12   11
                                                                 
     3C2''    3    9   10
                                                                 
     i       13
                                                                 
     2S3     17   18
                                                                 
     2S6     19   20
                                                                 
     s_h     14
                                                                 
     3s_d    16   24   23
                                                                 
     3s_v    15   21   22
                                                                 

     Band symmetry, D_6h(6/mmm) point group:

     e(  1 -  1) =    -39.37183  eV     1   --> A_1g           
     e(  2 -  2) =     -5.78341  eV     1   --> A_1g           
     e(  3 -  3) =      3.29878  eV     1   --> A_2u           
     e(  4 -  5) =      6.78889  eV     2   --> E_2g           
     e(  6 -  6) =     10.72078  eV     1   --> A_1g           
     e(  7 -  8) =     13.19026  eV     2   --> E_1u           
     e(  9 -  9) =     16.37765  eV     1   --> B_2u           

 **************************************************************************

 **************************************************************************

                    xk=(   0.01250,   0.00722,   0.00000  )

     point group C_2v (mm2) 
     there are  4 classes
     the character table:

       E     C2    s_v   s_v' 
A_1    1.00  1.00  1.00  1.00
A_2    1.00  1.00 -1.00 -1.00
B_1    1.00 -1.00  1.00 -1.00
B_2    1.00 -1.00 -1.00  1.00

     the symmetry operations in each class and the name of the first element:

     E        1
                                                                 
     C2       2
                                                                 
     s_v      3
                                                                 
     s_v'     4
                                                                 

     Band symmetry, C_2v (mm2)  point group:

     e(  1 -  1) =    -39.37180  eV     1   --> A_1  D_1  S_1  
     e(  2 -  2) =     -5.78088  eV     1   --> A_1  D_1  S_1  
     e(  3 -  3) =      3.30196  eV     1   --> B_2  D_4  S_4  
     e(  4 -  4) =      6.77472  eV     1   --> A_1  D_1  S_1  
     e(  5 -  5) =      6.78119  eV     1   --> B_1  D_3  S_3  
     e(  6 -  6) =     10.71879  eV     1   --> A_1  D_1  S_1  
     e(  7 -  7) =     13.19827  eV     1   --> A_1  D_1  S_1  
     e(  8 -  8) =     13.20358  eV     1   --> B_1  D_3  S_3  
     e(  9 -  9) =     16.38223  eV     1   --> A_1  D_1  S_1  

 **************************************************************************

 **************************************************************************

                    xk=(   0.02500,   0.01443,   0.00000  )

     Band symmetry, C_2v (mm2)  point group:

     e(  1 -  1) =    -39.37171  eV     1   --> A_1  D_1  S_1  
     e(  2 -  2) =     -5.77328  eV     1   --> A_1  D_1  S_1  
     e(  3 -  3) =      3.31149  eV     1   --> B_2  D_4  S_4  
     e(  4 -  4) =      6.73251  eV     1   --> A_1  D_1  S_1  
     e(  5 -  5) =      6.75833  eV     1   --> B_1  D_3  S_3  
     e(  6 -  6) =     10.71309  eV     1   --> A_1  D_1  S_1  
     e(  7 -  7) =     13.22167  eV     1   --> A_1  D_1  S_1  
     e(  8 -  8) =     13.24330  eV     1   --> B_1  D_3  S_3  
     e(  9 -  9) =     16.39599  eV     1   --> A_1  D_1  S_1  

 **************************************************************************

 **************************************************************************

                    xk=(   0.03750,   0.02165,   0.00000  )

     Band symmetry, C_2v (mm2)  point group:

     e(  1 -  1) =    -39.37156  eV     1   --> A_1  D_1  S_1  
     e(  2 -  2) =     -5.76063  eV     1   --> A_1  D_1  S_1  
     e(  3 -  3) =      3.32739  eV     1   --> B_2  D_4  S_4  
     e(  4 -  4) =      6.66310  eV     1   --> A_1  D_1  S_1  
     e(  5 -  5) =      6.72091  eV     1   --> B_1  D_3  S_3  
     e(  6 -  6) =     10.70445  eV     1   --> A_1  D_1  S_1  
     e(  7 -  7) =     13.25875  eV     1   --> A_1  D_1  S_1  
     e(  8 -  8) =     13.30879  eV     1   --> B_1  D_3  S_3  
     e(  9 -  9) =     16.41896  eV     1   --> A_1  D_1  S_1  

 **************************************************************************

 **************************************************************************

                    xk=(   0.05000,   0.02887,   0.00000  )

     Band symmetry, C_2v (mm2)  point group:

     e(  1 -  1) =    -39.37135  eV     1   --> A_1  D_1  S_1  
     e(  2 -  2) =     -5.74291  eV     1   --> A_1  D_1  S_1  
     e(  3 -  3) =      3.34964  eV     1   --> B_2  D_4  S_4  
     e(  4 -  4) =      6.56783  eV     1   --> A_1  D_1  S_1  
     e(  5 -  5) =      6.66993  eV     1   --> B_1  D_3  S_3  
     e(  6 -  6) =     10.69393  eV     1   --> A_1  D_1  S_1  
     e(  7 -  7) =     13.30694  eV     1   --> A_1  D_1  S_1  
     e(  8 -  8) =     13.39900  eV     1   --> B_1  D_3  S_3  
     e(  9 -  9) =     16.45118  eV     1   --> A_1  D_1  S_1  

 **************************************************************************

 **************************************************************************

                    xk=(   0.06250,   0.03608,   0.00000  )

     Band symmetry, C_2v (mm2)  point group:

     e(  1 -  1) =    -39.37108  eV     1   --> A_1  D_1  S_1  
     e(  2 -  2) =     -5.72013  eV     1   --> A_1  D_1  S_1  
     e(  3 -  3) =      3.37822  eV     1   --> B_2  D_4  S_4  
     e(  4 -  4) =      6.44842  eV     1   --> A_1  D_1  S_1  
     e(  5 -  5) =      6.60661  eV     1   --> B_1  D_3  S_3  
     e(  6 -  6) =     10.68273  eV     1   --> A_1  D_1  S_1  
     e(  7 -  7) =     13.36314  eV     1   --> A_1  D_1  S_1  
     e(  8 -  8) =     13.51264  eV     1   --> B_1  D_3  S_3  
     e(  9 -  9) =     16.49261  eV     1   --> A_1  D_1  S_1  

 **************************************************************************

 **************************************************************************

                    xk=(   0.07500,   0.04330,   0.00000  )

     Band symmetry, C_2v (mm2)  point group:

     e(  1 -  1) =    -39.37075  eV     1   --> A_1  D_1  S_1  
     e(  2 -  2) =     -5.69229  eV     1   --> A_1  D_1  S_1  
     e(  3 -  3) =      3.41313  eV     1   --> B_2  D_4  S_4  
     e(  4 -  4) =      6.30690  eV     1   --> A_1  D_1  S_1  
     e(  5 -  5) =      6.53239  eV     1   --> B_1  D_3  S_3  
     e(  6 -  6) =     10.67196  eV     1   --> A_1  D_1  S_1  
     e(  7 -  7) =     13.42409  eV     1   --> A_1  D_1  S_1  
     e(  8 -  8) =     13.64818  eV     1   --> B_1  D_3  S_3  
     e(  9 -  9) =     16.54306  eV     1   --> A_1  D_1  S_1  

 **************************************************************************

 **************************************************************************

                    xk=(   0.08750,   0.05052,   0.00000  )

     Band symmetry, C_2v (mm2)  point group:

     e(  1 -  1) =    -39.37038  eV     1   --> A_1  D_1  S_1  
     e(  2 -  2) =     -5.65939  eV     1   --> A_1  D_1  S_1  
     e(  3 -  3) =      3.45436  eV     1   --> B_2  D_4  S_4  
     e(  4 -  4) =      6.14543  eV     1   --> A_1  D_1  S_1  
     e(  5 -  5) =      6.44876  eV     1   --> B_1  D_3  S_3  
     e(  6 -  6) =     10.66261  eV     1   --> A_1  D_1  S_1  
     e(  7 -  7) =     13.48664  eV     1   --> A_1  D_1  S_1  
     e(  8 -  8) =     13.80400  eV     1   --> B_1  D_3  S_3  
     e(  9 -  9) =     16.78669  eV     1   --> B_2  D_4  S_4  

 **************************************************************************

 **************************************************************************

                    xk=(   0.10000,   0.05774,   0.00000  )

     Band symmetry, C_2v (mm2)  point group:

     e(  1 -  1) =    -39.36994  eV     1   --> A_1  D_1  S_1  
     e(  2 -  2) =     -5.62144  eV     1   --> A_1  D_1  S_1  
     e(  3 -  3) =      3.50189  eV     1   --> B_2  D_4  S_4  
     e(  4 -  4) =      5.96628  eV     1   --> A_1  D_1  S_1  
     e(  5 -  5) =      6.35724  eV     1   --> B_1  D_3  S_3  
     e(  6 -  6) =     10.65542  eV     1   --> A_1  D_1  S_1  
     e(  7 -  7) =     13.54799  eV     1   --> A_1  D_1  S_1  
     e(  8 -  8) =     13.97844  eV     1   --> B_1  D_3  S_3  
     e(  9 -  9) =     16.64766  eV     1   --> B_2  D_4  S_4  

 **************************************************************************

 **************************************************************************

                    xk=(   0.11250,   0.06495,   0.00000  )

     Band symmetry, C_2v (mm2)  point group:

     e(  1 -  1) =    -39.36946  eV     1   --> A_1  D_1  S_1  
     e(  2 -  2) =     -5.57844  eV     1   --> A_1  D_1  S_1  
     e(  3 -  3) =      3.55569  eV     1   --> B_2  D_4  S_4  
     e(  4 -  4) =      5.77164  eV     1   --> A_1  D_1  S_1  
     e(  5 -  5) =      6.25931  eV     1   --> B_1  D_3  S_3  
     e(  6 -  6) =     10.65094  eV     1   --> A_1  D_1  S_1  
     e(  7 -  7) =     13.60577  eV     1   --> A_1  D_1  S_1  
     e(  8 -  8) =     14.16984  eV     1   --> B_1  D_3  S_3  
     e(  9 -  9) =     16.49347  eV     1   --> B_2  D_4  S_4  

 **************************************************************************

 **************************************************************************

                    xk=(   0.12500,   0.07217,   0.00000  )

     Band symmetry, C_2v (mm2)  point group:

     e(  1 -  1) =    -39.36894  eV     1   --> A_1  D_1  S_1  
     e(  2 -  2) =     -5.53039  eV     1   --> A_1  D_1  S_1  
     e(  3 -  3) =      3.61575  eV     1   --> B_2  D_4  S_4  
     e(  4 -  4) =      5.56363  eV     1   --> A_1  D_1  S_1  
     e(  5 -  5) =      6.15636  eV     1   --> B_1  D_3  S_3  
     e(  6 -  6) =     10.64954  eV     1   --> A_1  D_1  S_1  
     e(  7 -  7) =     13.65814  eV     1   --> A_1  D_1  S_1  
     e(  8 -  8) =     14.37659  eV     1   --> B_1  D_3  S_3  
     e(  9 -  9) =     16.32504  eV     1   --> B_2  D_4  S_4  

 **************************************************************************

 **************************************************************************

                    xk=(   0.13750,   0.07939,   0.00000  )

     Band symmetry, C_2v (mm2)  point group:

     e(  1 -  1) =    -39.36837  eV     1   --> A_1  D_1  S_1  
     e(  2 -  2) =     -5.47730  eV     1   --> A_1  D_1  S_1  
     e(  3 -  3) =      3.68203  eV     1   --> B_2  D_4  S_4  
     e(  4 -  4) =      5.34424  eV     1   --> A_1  D_1  S_1  
     e(  5 -  5) =      6.04967  eV     1   --> B_1  D_3  S_3  
     e(  6 -  6) =     10.65147  eV     1   --> A_1  D_1  S_1  
     e(  7 -  7) =     13.70376  eV     1   --> A_1  D_1  S_1  
     e(  8 -  8) =     14.59717  eV     1   --> B_1  D_3  S_3  
     e(  9 -  9) =     16.14334  eV     1   --> B_2  D_4  S_4  

 **************************************************************************

 **************************************************************************

                    xk=(   0.15000,   0.08660,   0.00000  )

     Band symmetry, C_2v (mm2)  point group:

     e(  1 -  1) =    -39.36776  eV     1   --> A_1  D_1  S_1  
     e(  2 -  2) =     -5.41917  eV     1   --> A_1  D_1  S_1  
     e(  3 -  3) =      3.75450  eV     1   --> B_2  D_4  S_4  
     e(  4 -  4) =      5.11527  eV     1   --> A_1  D_1  S_1  
     e(  5 -  5) =      5.94039  eV     1   --> B_1  D_3  S_3  
     e(  6 -  6) =     10.65687  eV     1   --> A_1  D_1  S_1  
     e(  7 -  7) =     13.74176  eV     1   --> A_1  D_1  S_1  
     e(  8 -  8) =     14.83010  eV     1   --> B_1  D_3  S_3  
     e(  9 -  9) =     15.94932  eV     1   --> B_2  D_4  S_4  

 **************************************************************************

 **************************************************************************

                    xk=(   0.16250,   0.09382,   0.00000  )

     Band symmetry, C_2v (mm2)  point group:

     e(  1 -  1) =    -39.36711  eV     1   --> A_1  D_1  S_1  
     e(  2 -  2) =     -5.35601  eV     1   --> A_1  D_1  S_1  
     e(  3 -  3) =      3.83312  eV     1   --> B_2  D_4  S_4  
     e(  4 -  4) =      4.87838  eV     1   --> A_1  D_1  S_1  
     e(  5 -  5) =      5.82956  eV     1   --> B_1  D_3  S_3  
     e(  6 -  6) =     10.66583  eV     1   --> A_1  D_1  S_1  
     e(  7 -  7) =     13.77165  eV     1   --> A_1  D_1  S_1  
     e(  8 -  8) =     15.07398  eV     1   --> B_1  D_3  S_3  
     e(  9 -  9) =     15.74392  eV     1   --> B_2  D_4  S_4  

 **************************************************************************

 **************************************************************************

                    xk=(   0.17500,   0.10104,   0.00000  )

     Band symmetry, C_2v (mm2)  point group:

     e(  1 -  1) =    -39.36643  eV     1   --> A_1  D_1  S_1  
     e(  2 -  2) =     -5.28783  eV     1   --> A_1  D_1  S_1  
     e(  3 -  3) =      3.91786  eV     1   --> B_2  D_4  S_4  
     e(  4 -  4) =      4.63503  eV     1   --> A_1  D_1  S_1  
     e(  5 -  5) =      5.71811  eV     1   --> B_1  D_3  S_3  
     e(  6 -  6) =     10.67839  eV     1   --> A_1  D_1  S_1  
     e(  7 -  7) =     13.79322  eV     1   --> A_1  D_1  S_1  
     e(  8 -  8) =     15.32746  eV     1   --> B_1  D_3  S_3  
     e(  9 -  9) =     15.52809  eV     1   --> B_2  D_4  S_4  

 **************************************************************************

 **************************************************************************

                    xk=(   0.18750,   0.10825,   0.00000  )

     Band symmetry, C_2v (mm2)  point group:

     e(  1 -  1) =    -39.36573  eV     1   --> A_1  D_1  S_1  
     e(  2 -  2) =     -5.21463  eV     1   --> A_1  D_1  S_1  
     e(  3 -  3) =      4.00865  eV     1   --> B_2  D_4  S_4  
     e(  4 -  4) =      4.38653  eV     1   --> A_1  D_1  S_1  
     e(  5 -  5) =      5.60684  eV     1   --> B_1  D_3  S_3  
     e(  6 -  6) =     10.69458  eV     1   --> A_1  D_1  S_1  
     e(  7 -  7) =     13.80652  eV     1   --> A_1  D_1  S_1  
     e(  8 -  8) =     15.30276  eV     1   --> B_2  D_4  S_4  
     e(  9 -  9) =     15.58919  eV     1   --> B_1  D_3  S_3  

 **************************************************************************

 **************************************************************************

                    xk=(   0.20000,   0.11547,   0.00000  )

     Band symmetry, C_2v (mm2)  point group:

     e(  1 -  1) =    -39.36500  eV     1   --> A_1  D_1  S_1  
     e(  2 -  2) =     -5.13643  eV     1   --> A_1  D_1  S_1  
     e(  3 -  3) =      4.10546  eV     1   --> B_2  D_4  S_4  
     e(  4 -  4) =      4.13406  eV     1   --> A_1  D_1  S_1  
     e(  5 -  5) =      5.49648  eV     1   --> B_1  D_3  S_3  
     e(  6 -  6) =     10.71441  eV     1   --> A_1  D_1  S_1  
     e(  7 -  7) =     13.81169  eV     1   --> A_1  D_1  S_1  
     e(  8 -  8) =     15.06888  eV     1   --> B_2  D_4  S_4  
     e(  9 -  9) =     15.85782  eV     1   --> B_1  D_3  S_3  

 **************************************************************************

 **************************************************************************

                    xk=(   0.21250,   0.12269,   0.00000  )

     Band symmetry, C_2v (mm2)  point group:

     e(  1 -  1) =    -39.36425  eV     1   --> A_1  D_1  S_1  
     e(  2 -  2) =     -5.05325  eV     1   --> A_1  D_1  S_1  
     e(  3 -  3) =      3.87865  eV     1   --> A_1  D_1  S_1  
     e(  4 -  4) =      4.20819  eV     1   --> B_2  D_4  S_4  
     e(  5 -  5) =      5.38764  eV     1   --> B_1  D_3  S_3  
     e(  6 -  6) =     10.73789  eV     1   --> A_1  D_1  S_1  
     e(  7 -  7) =     13.80897  eV     1   --> A_1  D_1  S_1  
     e(  8 -  8) =     14.82739  eV     1   --> B_2  D_4  S_4  
     e(  9 -  9) =     16.13197  eV     1   --> B_1  D_3  S_3  

 **************************************************************************

 **************************************************************************

                    xk=(   0.22500,   0.12990,   0.00000  )

     Band symmetry, C_2v (mm2)  point group:

     e(  1 -  1) =    -39.36349  eV     1   --> A_1  D_1  S_1  
     e(  2 -  2) =     -4.96509  eV     1   --> A_1  D_1  S_1  
     e(  3 -  3) =      3.62119  eV     1   --> A_1  D_1  S_1  
     e(  4 -  4) =      4.31680  eV     1   --> B_2  D_4  S_4  
     e(  5 -  5) =      5.28087  eV     1   --> B_1  D_3  S_3  
     e(  6 -  6) =     10.76502  eV     1   --> A_1  D_1  S_1  
     e(  7 -  7) =     13.79863  eV     1   --> A_1  D_1  S_1  
     e(  8 -  8) =     14.57923  eV     1   --> B_2  D_4  S_4  
     e(  9 -  9) =     16.41015  eV     1   --> B_1  D_3  S_3  

 **************************************************************************

 **************************************************************************

                    xk=(   0.23750,   0.13712,   0.00000  )

     Band symmetry, C_2v (mm2)  point group:

     e(  1 -  1) =    -39.36272  eV     1   --> A_1  D_1  S_1  
     e(  2 -  2) =     -4.87198  eV     1   --> A_1  D_1  S_1  
     e(  3 -  3) =      3.36252  eV     1   --> A_1  D_1  S_1  
     e(  4 -  4) =      4.43118  eV     1   --> B_2  D_4  S_4  
     e(  5 -  5) =      5.17664  eV     1   --> B_1  D_3  S_3  
     e(  6 -  6) =     10.79582  eV     1   --> A_1  D_1  S_1  
     e(  7 -  7) =     13.78095  eV     1   --> A_1  D_1  S_1  
     e(  8 -  8) =     14.32534  eV     1   --> B_2  D_4  S_4  
     e(  9 -  9) =     16.69074  eV     1   --> B_1  D_3  S_3  

 **************************************************************************

 **************************************************************************

                    xk=(   0.25000,   0.14434,   0.00000  )

     Band symmetry, C_2v (mm2)  point group:

     e(  1 -  1) =    -39.36194  eV     1   --> A_1  D_1  S_1  
     e(  2 -  2) =     -4.77395  eV     1   --> A_1  D_1  S_1  
     e(  3 -  3) =      3.10335  eV     1   --> A_1  D_1  S_1  
     e(  4 -  4) =      4.55123  eV     1   --> B_2  D_4  S_4  
     e(  5 -  5) =      5.07538  eV     1   --> B_1  D_3  S_3  
     e(  6 -  6) =     10.83028  eV     1   --> A_1  D_1  S_1  
     e(  7 -  7) =     13.75622  eV     1   --> A_1  D_1  S_1  
     e(  8 -  8) =     14.06665  eV     1   --> B_2  D_4  S_4  
     e(  9 -  9) =     16.97191  eV     1   --> B_1  D_3  S_3  

 **************************************************************************

 **************************************************************************

                    xk=(   0.26250,   0.15155,   0.00000  )

     Band symmetry, C_2v (mm2)  point group:

     e(  1 -  1) =    -39.36116  eV     1   --> A_1  D_1  S_1  
     e(  2 -  2) =     -4.67102  eV     1   --> A_1  D_1  S_1  
     e(  3 -  3) =      2.84432  eV     1   --> A_1  D_1  S_1  
     e(  4 -  4) =      4.67683  eV     1   --> B_2  D_4  S_4  
     e(  5 -  5) =      4.97745  eV     1   --> B_1  D_3  S_3  
     e(  6 -  6) =     10.86842  eV     1   --> A_1  D_1  S_1  
     e(  7 -  7) =     13.72468  eV     1   --> A_1  D_1  S_1  
     e(  8 -  8) =     13.80411  eV     1   --> B_2  D_4  S_4  
     e(  9 -  9) =     17.25156  eV     1   --> B_1  D_3  S_3  

 **************************************************************************

 **************************************************************************

                    xk=(   0.27500,   0.15877,   0.00000  )

     Band symmetry, C_2v (mm2)  point group:

     e(  1 -  1) =    -39.36039  eV     1   --> A_1  D_1  S_1  
     e(  2 -  2) =     -4.56323  eV     1   --> A_1  D_1  S_1  
     e(  3 -  3) =      2.58602  eV     1   --> A_1  D_1  S_1  
     e(  4 -  4) =      4.80786  eV     1   --> B_2  D_4  S_4  
     e(  5 -  5) =      4.88317  eV     1   --> B_1  D_3  S_3  
     e(  6 -  6) =     10.91024  eV     1   --> A_1  D_1  S_1  
     e(  7 -  7) =     13.53862  eV     1   --> B_2  D_4  S_4  
     e(  8 -  8) =     13.68658  eV     1   --> A_1  D_1  S_1  
     e(  9 -  9) =     17.43365  eV     1   --> A_1  D_1  S_1  

 **************************************************************************

 **************************************************************************

                    xk=(   0.28750,   0.16599,   0.00000  )

     Band symmetry, C_2v (mm2)  point group:

     e(  1 -  1) =    -39.35963  eV     1   --> A_1  D_1  S_1  
     e(  2 -  2) =     -4.45062  eV     1   --> A_1  D_1  S_1  
     e(  3 -  3) =      2.32895  eV     1   --> A_1  D_1  S_1  
     e(  4 -  4) =      4.79282  eV     1   --> B_1  D_3  S_3  
     e(  5 -  5) =      4.94413  eV     1   --> B_2  D_4  S_4  
     e(  6 -  6) =     10.95574  eV     1   --> A_1  D_1  S_1  
     e(  7 -  7) =     13.27110  eV     1   --> B_2  D_4  S_4  
     e(  8 -  8) =     13.64216  eV     1   --> A_1  D_1  S_1  
     e(  9 -  9) =     17.41029  eV     1   --> A_1  D_1  S_1  

 **************************************************************************

 **************************************************************************

                    xk=(   0.30000,   0.17321,   0.00000  )

     Band symmetry, C_2v (mm2)  point group:

     e(  1 -  1) =    -39.35888  eV     1   --> A_1  D_1  S_1  
     e(  2 -  2) =     -4.33325  eV     1   --> A_1  D_1  S_1  
     e(  3 -  3) =      2.07361  eV     1   --> A_1  D_1  S_1  
     e(  4 -  4) =      4.70663  eV     1   --> B_1  D_3  S_3  
     e(  5 -  5) =      5.08545  eV     1   --> B_2  D_4  S_4  
     e(  6 -  6) =     11.00490  eV     1   --> A_1  D_1  S_1  
     e(  7 -  7) =     13.00247  eV     1   --> B_2  D_4  S_4  
     e(  8 -  8) =     13.59166  eV     1   --> A_1  D_1  S_1  
     e(  9 -  9) =     17.37753  eV     1   --> A_1  D_1  S_1  

 **************************************************************************

 **************************************************************************

                    xk=(   0.31250,   0.18042,   0.00000  )

     Band symmetry, C_2v (mm2)  point group:

     e(  1 -  1) =    -39.35815  eV     1   --> A_1  D_1  S_1  
     e(  2 -  2) =     -4.21118  eV     1   --> A_1  D_1  S_1  
     e(  3 -  3) =      1.82042  eV     1   --> A_1  D_1  S_1  
     e(  4 -  4) =      4.62483  eV     1   --> B_1  D_3  S_3  
     e(  5 -  5) =      5.23157  eV     1   --> B_2  D_4  S_4  
     e(  6 -  6) =     11.05772  eV     1   --> A_1  D_1  S_1  
     e(  7 -  7) =     12.73363  eV     1   --> B_2  D_4  S_4  
     e(  8 -  8) =     13.53533  eV     1   --> A_1  D_1  S_1  
     e(  9 -  9) =     17.33751  eV     1   --> A_1  D_1  S_1  

 **************************************************************************

 **************************************************************************

                    xk=(   0.32500,   0.18764,   0.00000  )

     Band symmetry, C_2v (mm2)  point group:

     e(  1 -  1) =    -39.35745  eV     1   --> A_1  D_1  S_1  
     e(  2 -  2) =     -4.08450  eV     1   --> A_1  D_1  S_1  
     e(  3 -  3) =      1.56982  eV     1   --> A_1  D_1  S_1  
     e(  4 -  4) =      4.54761  eV     1   --> B_1  D_3  S_3  
     e(  5 -  5) =      5.38221  eV     1   --> B_2  D_4  S_4  
     e(  6 -  6) =     11.11416  eV     1   --> A_1  D_1  S_1  
     e(  7 -  7) =     12.46550  eV     1   --> B_2  D_4  S_4  
     e(  8 -  8) =     13.47343  eV     1   --> A_1  D_1  S_1  
     e(  9 -  9) =     17.29236  eV     1   --> A_1  D_1  S_1  

 **************************************************************************

 **************************************************************************

                    xk=(   0.33750,   0.19486,   0.00000  )

     Band symmetry, C_2v (mm2)  point group:

     e(  1 -  1) =    -39.35677  eV     1   --> A_1  D_1  S_1  
     e(  2 -  2) =     -3.95332  eV     1   --> A_1  D_1  S_1  
     e(  3 -  3) =      1.32218  eV     1   --> A_1  D_1  S_1  
     e(  4 -  4) =      4.47513  eV     1   --> B_1  D_3  S_3  
     e(  5 -  5) =      5.53700  eV     1   --> B_2  D_4  S_4  
     e(  6 -  6) =     11.17419  eV     1   --> A_1  D_1  S_1  
     e(  7 -  7) =     12.19901  eV     1   --> B_2  D_4  S_4  
     e(  8 -  8) =     13.40628  eV     1   --> A_1  D_1  S_1  
     e(  9 -  9) =     17.24408  eV     1   --> A_1  D_1  S_1  

 **************************************************************************

 **************************************************************************

                    xk=(   0.35000,   0.20207,   0.00000  )

     Band symmetry, C_2v (mm2)  point group:

     e(  1 -  1) =    -39.35612  eV     1   --> A_1  D_1  S_1  
     e(  2 -  2) =     -3.81777  eV     1   --> A_1  D_1  S_1  
     e(  3 -  3) =      1.07791  eV     1   --> A_1  D_1  S_1  
     e(  4 -  4) =      4.40753  eV     1   --> B_1  D_3  S_3  
     e(  5 -  5) =      5.69547  eV     1   --> B_2  D_4  S_4  
     e(  6 -  6) =     11.23776  eV     1   --> A_1  D_1  S_1  
     e(  7 -  7) =     11.93514  eV     1   --> B_2  D_4  S_4  
     e(  8 -  8) =     13.33420  eV     1   --> A_1  D_1  S_1  
     e(  9 -  9) =     17.19441  eV     1   --> A_1  D_1  S_1  

 **************************************************************************

 **************************************************************************

                    xk=(   0.36250,   0.20929,   0.00000  )

     Band symmetry, C_2v (mm2)  point group:

     e(  1 -  1) =    -39.35551  eV     1   --> A_1  D_1  S_1  
     e(  2 -  2) =     -3.67804  eV     1   --> A_1  D_1  S_1  
     e(  3 -  3) =      0.83743  eV     1   --> A_1  D_1  S_1  
     e(  4 -  4) =      4.34493  eV     1   --> B_1  D_3  S_3  
     e(  5 -  5) =      5.85705  eV     1   --> B_2  D_4  S_4  
     e(  6 -  6) =     11.30479  eV     1   --> A_1  D_1  S_1  
     e(  7 -  7) =     11.67496  eV     1   --> B_2  D_4  S_4  
     e(  8 -  8) =     13.25756  eV     1   --> A_1  D_1  S_1  
     e(  9 -  9) =     17.14489  eV     1   --> A_1  D_1  S_1  

 **************************************************************************

 **************************************************************************

                    xk=(   0.37500,   0.21651,   0.00000  )

     Band symmetry, C_2v (mm2)  point group:

     e(  1 -  1) =    -39.35494  eV     1   --> A_1  D_1  S_1  
     e(  2 -  2) =     -3.53438  eV     1   --> A_1  D_1  S_1  
     e(  3 -  3) =      0.60117  eV     1   --> A_1  D_1  S_1  
     e(  4 -  4) =      4.28746  eV     1   --> B_1  D_3  S_3  
     e(  5 -  5) =      6.02099  eV     1   --> B_2  D_4  S_4  
     e(  6 -  6) =     11.37520  eV     1   --> A_1  D_1  S_1  
     e(  7 -  7) =     11.41965  eV     1   --> B_2  D_4  S_4  
     e(  8 -  8) =     13.17679  eV     1   --> A_1  D_1  S_1  
     e(  9 -  9) =     17.09682  eV     1   --> A_1  D_1  S_1  

 **************************************************************************

 **************************************************************************

                    xk=(   0.38750,   0.22372,   0.00000  )

     Band symmetry, C_2v (mm2)  point group:

     e(  1 -  1) =    -39.35442  eV     1   --> A_1  D_1  S_1  
     e(  2 -  2) =     -3.38713  eV     1   --> A_1  D_1  S_1  
     e(  3 -  3) =      0.36966  eV     1   --> A_1  D_1  S_1  
     e(  4 -  4) =      4.23520  eV     1   --> B_1  D_3  S_3  
     e(  5 -  5) =      6.18629  eV     1   --> B_2  D_4  S_4  
     e(  6 -  6) =     11.17057  eV     1   --> B_2  D_4  S_4  
     e(  7 -  7) =     11.44887  eV     1   --> A_1  D_1  S_1  
     e(  8 -  8) =     13.09233  eV     1   --> A_1  D_1  S_1  
     e(  9 -  9) =     17.05122  eV     1   --> A_1  D_1  S_1  

 **************************************************************************

 **************************************************************************

                    xk=(   0.40000,   0.23094,   0.00000  )

     Band symmetry, C_2v (mm2)  point group:

     e(  1 -  1) =    -39.35393  eV     1   --> A_1  D_1  S_1  
     e(  2 -  2) =     -3.23677  eV     1   --> A_1  D_1  S_1  
     e(  3 -  3) =      0.14354  eV     1   --> A_1  D_1  S_1  
     e(  4 -  4) =      4.18823  eV     1   --> B_1  D_3  S_3  
     e(  5 -  5) =      6.35164  eV     1   --> B_2  D_4  S_4  
     e(  6 -  6) =     10.92940  eV     1   --> B_2  D_4  S_4  
     e(  7 -  7) =     11.52568  eV     1   --> A_1  D_1  S_1  
     e(  8 -  8) =     13.00466  eV     1   --> A_1  D_1  S_1  
     e(  9 -  9) =     17.00893  eV     1   --> A_1  D_1  S_1  

 **************************************************************************

 **************************************************************************

                    xk=(   0.41250,   0.23816,   0.00000  )

     Band symmetry, C_2v (mm2)  point group:

     e(  1 -  1) =    -39.35350  eV     1   --> A_1  D_1  S_1  
     e(  2 -  2) =     -3.08404  eV     1   --> A_1  D_1  S_1  
     e(  3 -  3) =     -0.07634  eV     1   --> A_1  D_1  S_1  
     e(  4 -  4) =      4.14664  eV     1   --> B_1  D_3  S_3  
     e(  5 -  5) =      6.51527  eV     1   --> B_2  D_4  S_4  
     e(  6 -  6) =     10.69820  eV     1   --> B_2  D_4  S_4  
     e(  7 -  7) =     11.60544  eV     1   --> A_1  D_1  S_1  
     e(  8 -  8) =     12.91430  eV     1   --> A_1  D_1  S_1  
     e(  9 -  9) =     16.97057  eV     1   --> A_1  D_1  S_1  

 **************************************************************************

 **************************************************************************

                    xk=(   0.42500,   0.24537,   0.00000  )

     Band symmetry, C_2v (mm2)  point group:

     e(  1 -  1) =    -39.35312  eV     1   --> A_1  D_1  S_1  
     e(  2 -  2) =     -2.93005  eV     1   --> A_1  D_1  S_1  
     e(  3 -  3) =     -0.28875  eV     1   --> A_1  D_1  S_1  
     e(  4 -  4) =      4.11047  eV     1   --> B_1  D_3  S_3  
     e(  5 -  5) =      6.67473  eV     1   --> B_2  D_4  S_4  
     e(  6 -  6) =     10.47966  eV     1   --> B_2  D_4  S_4  
     e(  7 -  7) =     11.68795  eV     1   --> A_1  D_1  S_1  
     e(  8 -  8) =     12.82181  eV     1   --> A_1  D_1  S_1  
     e(  9 -  9) =     16.93665  eV     1   --> A_1  D_1  S_1  

 **************************************************************************

 **************************************************************************

                    xk=(   0.43750,   0.25259,   0.00000  )

     Band symmetry, C_2v (mm2)  point group:

     e(  1 -  1) =    -39.35280  eV     1   --> A_1  D_1  S_1  
     e(  2 -  2) =     -2.77657  eV     1   --> A_1  D_1  S_1  
     e(  3 -  3) =     -0.49181  eV     1   --> A_1  D_1  S_1  
     e(  4 -  4) =      4.07979  eV     1   --> B_1  D_3  S_3  
     e(  5 -  5) =      6.82669  eV     1   --> B_2  D_4  S_4  
     e(  6 -  6) =     10.27736  eV     1   --> B_2  D_4  S_4  
     e(  7 -  7) =     11.77294  eV     1   --> A_1  D_1  S_1  
     e(  8 -  8) =     12.72777  eV     1   --> A_1  D_1  S_1  
     e(  9 -  9) =     16.90749  eV     1   --> A_1  D_1  S_1  

 **************************************************************************

 **************************************************************************

                    xk=(   0.45000,   0.25981,   0.00000  )

     Band symmetry, C_2v (mm2)  point group:

     e(  1 -  1) =    -39.35253  eV     1   --> A_1  D_1  S_1  
     e(  2 -  2) =     -2.62660  eV     1   --> A_1  D_1  S_1  
     e(  3 -  3) =     -0.68245  eV     1   --> A_1  D_1  S_1  
     e(  4 -  4) =      4.05463  eV     1   --> B_1  D_3  S_3  
     e(  5 -  5) =      6.96657  eV     1   --> B_2  D_4  S_4  
     e(  6 -  6) =     10.09604  eV     1   --> B_2  D_4  S_4  
     e(  7 -  7) =     11.86002  eV     1   --> A_1  D_1  S_1  
     e(  8 -  8) =     12.63286  eV     1   --> A_1  D_1  S_1  
     e(  9 -  9) =     16.88338  eV     1   --> A_1  D_1  S_1  

 **************************************************************************

 **************************************************************************

                    xk=(   0.46250,   0.26702,   0.00000  )

     Band symmetry, C_2v (mm2)  point group:

     e(  1 -  1) =    -39.35232  eV     1   --> A_1  D_1  S_1  
     e(  2 -  2) =     -2.48545  eV     1   --> A_1  D_1  S_1  
     e(  3 -  3) =     -0.85530  eV     1   --> A_1  D_1  S_1  
     e(  4 -  4) =      4.03502  eV     1   --> B_1  D_3  S_3  
     e(  5 -  5) =      7.08828  eV     1   --> B_2  D_4  S_4  
     e(  6 -  6) =      9.94194  eV     1   --> B_2  D_4  S_4  
     e(  7 -  7) =     11.94856  eV     1   --> A_1  D_1  S_1  
     e(  8 -  8) =     12.53795  eV     1   --> A_1  D_1  S_1  
     e(  9 -  9) =     16.86446  eV     1   --> A_1  D_1  S_1  

 **************************************************************************

 **************************************************************************

                    xk=(   0.47500,   0.27424,   0.00000  )

     Band symmetry, C_2v (mm2)  point group:

     e(  1 -  1) =    -39.35217  eV     1   --> A_1  D_1  S_1  
     e(  2 -  2) =     -2.36264  eV     1   --> A_1  D_1  S_1  
     e(  3 -  3) =     -1.00079  eV     1   --> A_1  D_1  S_1  
     e(  4 -  4) =      4.02100  eV     1   --> B_1  D_3  S_3  
     e(  5 -  5) =      7.18430  eV     1   --> B_2  D_4  S_4  
     e(  6 -  6) =      9.82271  eV     1   --> B_2  D_4  S_4  
     e(  7 -  7) =     12.03721  eV     1   --> A_1  D_1  S_1  
     e(  8 -  8) =     12.44461  eV     1   --> A_1  D_1  S_1  
     e(  9 -  9) =     16.85088  eV     1   --> A_1  D_1  S_1  

 **************************************************************************

 **************************************************************************

                    xk=(   0.48750,   0.28146,   0.00000  )

     Band symmetry, C_2v (mm2)  point group:

     e(  1 -  1) =    -39.35207  eV     1   --> A_1  D_1  S_1  
     e(  2 -  2) =     -2.27430  eV     1   --> A_1  D_1  S_1  
     e(  3 -  3) =     -1.10275  eV     1   --> A_1  D_1  S_1  
     e(  4 -  4) =      4.01258  eV     1   --> B_1  D_3  S_3  
     e(  5 -  5) =      7.24647  eV     1   --> B_2  D_4  S_4  
     e(  6 -  6) =      9.74658  eV     1   --> B_2  D_4  S_4  
     e(  7 -  7) =     12.12117  eV     1   --> A_1  D_1  S_1  
     e(  8 -  8) =     12.35777  eV     1   --> A_1  D_1  S_1  
     e(  9 -  9) =     16.84271  eV     1   --> A_1  D_1  S_1  

 **************************************************************************

 **************************************************************************

                    xk=(   0.50000,   0.28868,   0.00000  )

     point group D_2h (mmm) 
     there are  8 classes
     the character table:

       E     C2    C2'   C2''  i     s_v   s_v'  s_v''
A_g    1.00  1.00  1.00  1.00  1.00  1.00  1.00  1.00
B_1g   1.00  1.00 -1.00 -1.00  1.00  1.00 -1.00 -1.00
B_2g   1.00 -1.00  1.00 -1.00  1.00 -1.00  1.00 -1.00
B_3g   1.00 -1.00 -1.00  1.00  1.00 -1.00 -1.00  1.00
A_u    1.00  1.00  1.00  1.00 -1.00 -1.00 -1.00 -1.00
B_1u   1.00  1.00 -1.00 -1.00 -1.00 -1.00  1.00  1.00
B_2u   1.00 -1.00  1.00 -1.00 -1.00  1.00 -1.00  1.00
B_3u   1.00 -1.00 -1.00  1.00 -1.00  1.00  1.00 -1.00

     the symmetry operations in each class and the name of the first element:

     E        1
                                                                 
     C2       2
                                                                 
     C2'      4
                                                                 
     C2''     3
                                                                 
     i        5
                                                                 
     s_v      6
                                                                 
     s_v'     8
                                                                 
     s_v''    7
                                                                 

     Band symmetry, D_2h (mmm)  point group:

     e(  1 -  1) =    -39.35204  eV     1   --> A_g            
     e(  2 -  2) =     -2.24120  eV     1   --> B_3u           
     e(  3 -  3) =     -1.14039  eV     1   --> A_g            
     e(  4 -  4) =      4.00976  eV     1   --> B_2u           
     e(  5 -  5) =      7.26808  eV     1   --> B_2g           
     e(  6 -  6) =      9.72032  eV     1   --> B_1u           
     e(  7 -  7) =     12.16986  eV     1   --> A_g            
     e(  8 -  8) =     12.30811  eV     1   --> B_3u           
     e(  9 -  9) =     16.83998  eV     1   --> A_g            

 **************************************************************************

 **************************************************************************

                    xk=(   0.50417,   0.28146,   0.00000  )

     point group C_2v (mm2) 
     there are  4 classes
     the character table:

       E     C2    s_v   s_v' 
A_1    1.00  1.00  1.00  1.00
A_2    1.00  1.00 -1.00 -1.00
B_1    1.00 -1.00  1.00 -1.00
B_2    1.00 -1.00 -1.00  1.00

     the symmetry operations in each class and the name of the first element:

     E        1
                                                                 
     C2       2
                                                                 
     s_v      4
                                                                 
     s_v'     3
                                                                 

     Band symmetry, C_2v (mm2)  point group:

     e(  1 -  1) =    -39.35204  eV     1   --> A_1  D_1  S_1  
     e(  2 -  2) =     -2.24036  eV     1   --> B_2  D_4  S_4  
     e(  3 -  3) =     -1.13973  eV     1   --> A_1  D_1  S_1  
     e(  4 -  4) =      4.00490  eV     1   --> A_1  D_1  S_1  
     e(  5 -  5) =      7.26914  eV     1   --> A_2  D_2  S_2  
     e(  6 -  6) =      9.72052  eV     1   --> B_1  D_3  S_3  
     e(  7 -  7) =     12.17566  eV     1   --> A_1  D_1  S_1  
     e(  8 -  8) =     12.30889  eV     1   --> B_2  D_4  S_4  
     e(  9 -  9) =     16.83794  eV     1   --> A_1  D_1  S_1  

 **************************************************************************

 **************************************************************************

                    xk=(   0.50833,   0.27424,   0.00000  )

     Band symmetry, C_2v (mm2)  point group:

     e(  1 -  1) =    -39.35203  eV     1   --> A_1  D_1  S_1  
     e(  2 -  2) =     -2.23786  eV     1   --> B_2  D_4  S_4  
     e(  3 -  3) =     -1.13775  eV     1   --> A_1  D_1  S_1  
     e(  4 -  4) =      3.99036  eV     1   --> A_1  D_1  S_1  
     e(  5 -  5) =      7.27230  eV     1   --> A_2  D_2  S_2  
     e(  6 -  6) =      9.72113  eV     1   --> B_1  D_3  S_3  
     e(  7 -  7) =     12.19299  eV     1   --> A_1  D_1  S_1  
     e(  8 -  8) =     12.31123  eV     1   --> B_2  D_4  S_4  
     e(  9 -  9) =     16.83184  eV     1   --> A_1  D_1  S_1  

 **************************************************************************

 **************************************************************************

                    xk=(   0.51250,   0.26702,   0.00000  )

     Band symmetry, C_2v (mm2)  point group:

     e(  1 -  1) =    -39.35201  eV     1   --> A_1  D_1  S_1  
     e(  2 -  2) =     -2.23368  eV     1   --> B_2  D_4  S_4  
     e(  3 -  3) =     -1.13445  eV     1   --> A_1  D_1  S_1  
     e(  4 -  4) =      3.96628  eV     1   --> A_1  D_1  S_1  
     e(  5 -  5) =      7.27757  eV     1   --> A_2  D_2  S_2  
     e(  6 -  6) =      9.72214  eV     1   --> B_1  D_3  S_3  
     e(  7 -  7) =     12.22167  eV     1   --> A_1  D_1  S_1  
     e(  8 -  8) =     12.31513  eV     1   --> B_2  D_4  S_4  
     e(  9 -  9) =     16.82182  eV     1   --> A_1  D_1  S_1  

 **************************************************************************

 **************************************************************************

                    xk=(   0.51667,   0.25981,   0.00000  )

     Band symmetry, C_2v (mm2)  point group:

     e(  1 -  1) =    -39.35199  eV     1   --> A_1  D_1  S_1  
     e(  2 -  2) =     -2.22784  eV     1   --> B_2  D_4  S_4  
     e(  3 -  3) =     -1.12983  eV     1   --> A_1  D_1  S_1  
     e(  4 -  4) =      3.93291  eV     1   --> A_1  D_1  S_1  
     e(  5 -  5) =      7.28495  eV     1   --> A_2  D_2  S_2  
     e(  6 -  6) =      9.72351  eV     1   --> B_1  D_3  S_3  
     e(  7 -  7) =     12.26137  eV     1   --> A_1  D_1  S_1  
     e(  8 -  8) =     12.32058  eV     1   --> B_2  D_4  S_4  
     e(  9 -  9) =     16.80812  eV     1   --> A_1  D_1  S_1  

 **************************************************************************

 **************************************************************************

                    xk=(   0.52083,   0.25259,   0.00000  )

     Band symmetry, C_2v (mm2)  point group:

     e(  1 -  1) =    -39.35196  eV     1   --> A_1  D_1  S_1  
     e(  2 -  2) =     -2.22032  eV     1   --> B_2  D_4  S_4  
     e(  3 -  3) =     -1.12391  eV     1   --> A_1  D_1  S_1  
     e(  4 -  4) =      3.89058  eV     1   --> A_1  D_1  S_1  
     e(  5 -  5) =      7.29443  eV     1   --> A_2  D_2  S_2  
     e(  6 -  6) =      9.72521  eV     1   --> B_1  D_3  S_3  
     e(  7 -  7) =     12.31165  eV     1   --> A_1  D_1  S_1  
     e(  8 -  8) =     12.32759  eV     1   --> B_2  D_4  S_4  
     e(  9 -  9) =     16.79102  eV     1   --> A_1  D_1  S_1  

 **************************************************************************

 **************************************************************************

                    xk=(   0.52500,   0.24537,   0.00000  )

     Band symmetry, C_2v (mm2)  point group:

     e(  1 -  1) =    -39.35192  eV     1   --> A_1  D_1  S_1  
     e(  2 -  2) =     -2.21114  eV     1   --> B_2  D_4  S_4  
     e(  3 -  3) =     -1.11669  eV     1   --> A_1  D_1  S_1  
     e(  4 -  4) =      3.83968  eV     1   --> A_1  D_1  S_1  
     e(  5 -  5) =      7.30602  eV     1   --> A_2  D_2  S_2  
     e(  6 -  6) =      9.72720  eV     1   --> B_1  D_3  S_3  
     e(  7 -  7) =     12.33616  eV     1   --> B_2  D_4  S_4  
     e(  8 -  8) =     12.37197  eV     1   --> A_1  D_1  S_1  
     e(  9 -  9) =     16.77091  eV     1   --> A_1  D_1  S_1  

 **************************************************************************

 **************************************************************************

                    xk=(   0.52917,   0.23816,   0.00000  )

     Band symmetry, C_2v (mm2)  point group:

     e(  1 -  1) =    -39.35188  eV     1   --> A_1  D_1  S_1  
     e(  2 -  2) =     -2.20028  eV     1   --> B_2  D_4  S_4  
     e(  3 -  3) =     -1.10820  eV     1   --> A_1  D_1  S_1  
     e(  4 -  4) =      3.78066  eV     1   --> A_1  D_1  S_1  
     e(  5 -  5) =      7.31972  eV     1   --> A_2  D_2  S_2  
     e(  6 -  6) =      9.72943  eV     1   --> B_1  D_3  S_3  
     e(  7 -  7) =     12.34629  eV     1   --> B_2  D_4  S_4  
     e(  8 -  8) =     12.44168  eV     1   --> A_1  D_1  S_1  
     e(  9 -  9) =     16.74824  eV     1   --> A_1  D_1  S_1  

 **************************************************************************

 **************************************************************************

                    xk=(   0.53333,   0.23094,   0.00000  )

     Band symmetry, C_2v (mm2)  point group:

     e(  1 -  1) =    -39.35183  eV     1   --> A_1  D_1  S_1  
     e(  2 -  2) =     -2.18776  eV     1   --> B_2  D_4  S_4  
     e(  3 -  3) =     -1.09843  eV     1   --> A_1  D_1  S_1  
     e(  4 -  4) =      3.71403  eV     1   --> A_1  D_1  S_1  
     e(  5 -  5) =      7.33552  eV     1   --> A_2  D_2  S_2  
     e(  6 -  6) =      9.73183  eV     1   --> B_1  D_3  S_3  
     e(  7 -  7) =     12.35797  eV     1   --> B_2  D_4  S_4  
     e(  8 -  8) =     12.52004  eV     1   --> A_1  D_1  S_1  
     e(  9 -  9) =     16.72355  eV     1   --> A_1  D_1  S_1  

 **************************************************************************

 **************************************************************************

                    xk=(   0.53750,   0.22372,   0.00000  )

     Band symmetry, C_2v (mm2)  point group:

     e(  1 -  1) =    -39.35178  eV     1   --> A_1  D_1  S_1  
     e(  2 -  2) =     -2.17357  eV     1   --> B_2  D_4  S_4  
     e(  3 -  3) =     -1.08742  eV     1   --> A_1  D_1  S_1  
     e(  4 -  4) =      3.64032  eV     1   --> A_1  D_1  S_1  
     e(  5 -  5) =      7.35342  eV     1   --> A_2  D_2  S_2  
     e(  6 -  6) =      9.73432  eV     1   --> B_1  D_3  S_3  
     e(  7 -  7) =     12.37120  eV     1   --> B_2  D_4  S_4  
     e(  8 -  8) =     12.60621  eV     1   --> A_1  D_1  S_1  
     e(  9 -  9) =     16.69741  eV     1   --> A_1  D_1  S_1  

 **************************************************************************

 **************************************************************************

                    xk=(   0.54167,   0.21651,   0.00000  )

     Band symmetry, C_2v (mm2)  point group:

     e(  1 -  1) =    -39.35172  eV     1   --> A_1  D_1  S_1  
     e(  2 -  2) =     -2.15772  eV     1   --> B_2  D_4  S_4  
     e(  3 -  3) =     -1.07519  eV     1   --> A_1  D_1  S_1  
     e(  4 -  4) =      3.56009  eV     1   --> A_1  D_1  S_1  
     e(  5 -  5) =      7.37342  eV     1   --> A_2  D_2  S_2  
     e(  6 -  6) =      9.73681  eV     1   --> B_1  D_3  S_3  
     e(  7 -  7) =     12.38599  eV     1   --> B_2  D_4  S_4  
     e(  8 -  8) =     12.69928  eV     1   --> A_1  D_1  S_1  
     e(  9 -  9) =     16.67051  eV     1   --> A_1  D_1  S_1  

 **************************************************************************

 **************************************************************************

                    xk=(   0.54583,   0.20929,   0.00000  )

     Band symmetry, C_2v (mm2)  point group:

     e(  1 -  1) =    -39.35165  eV     1   --> A_1  D_1  S_1  
     e(  2 -  2) =     -2.14020  eV     1   --> B_2  D_4  S_4  
     e(  3 -  3) =     -1.06176  eV     1   --> A_1  D_1  S_1  
     e(  4 -  4) =      3.47390  eV     1   --> A_1  D_1  S_1  
     e(  5 -  5) =      7.39553  eV     1   --> A_2  D_2  S_2  
     e(  6 -  6) =      9.73921  eV     1   --> B_1  D_3  S_3  
     e(  7 -  7) =     12.40233  eV     1   --> B_2  D_4  S_4  
     e(  8 -  8) =     12.79823  eV     1   --> A_1  D_1  S_1  
     e(  9 -  9) =     16.64360  eV     1   --> A_1  D_1  S_1  

 **************************************************************************

 **************************************************************************

                    xk=(   0.55000,   0.20207,   0.00000  )

     Band symmetry, C_2v (mm2)  point group:

     e(  1 -  1) =    -39.35158  eV     1   --> A_1  D_1  S_1  
     e(  2 -  2) =     -2.12101  eV     1   --> B_2  D_4  S_4  
     e(  3 -  3) =     -1.04716  eV     1   --> A_1  D_1  S_1  
     e(  4 -  4) =      3.38231  eV     1   --> A_1  D_1  S_1  
     e(  5 -  5) =      7.41972  eV     1   --> A_2  D_2  S_2  
     e(  6 -  6) =      9.74140  eV     1   --> B_1  D_3  S_3  
     e(  7 -  7) =     12.42023  eV     1   --> B_2  D_4  S_4  
     e(  8 -  8) =     12.90198  eV     1   --> A_1  D_1  S_1  
     e(  9 -  9) =     16.61750  eV     1   --> A_1  D_1  S_1  

 **************************************************************************

 **************************************************************************

                    xk=(   0.55417,   0.19486,   0.00000  )

     Band symmetry, C_2v (mm2)  point group:

     e(  1 -  1) =    -39.35151  eV     1   --> A_1  D_1  S_1  
     e(  2 -  2) =     -2.10017  eV     1   --> B_2  D_4  S_4  
     e(  3 -  3) =     -1.03144  eV     1   --> A_1  D_1  S_1  
     e(  4 -  4) =      3.28587  eV     1   --> A_1  D_1  S_1  
     e(  5 -  5) =      7.44602  eV     1   --> A_2  D_2  S_2  
     e(  6 -  6) =      9.74325  eV     1   --> B_1  D_3  S_3  
     e(  7 -  7) =     12.43967  eV     1   --> B_2  D_4  S_4  
     e(  8 -  8) =     13.00932  eV     1   --> A_1  D_1  S_1  
     e(  9 -  9) =     16.59314  eV     1   --> A_1  D_1  S_1  

 **************************************************************************

 **************************************************************************

                    xk=(   0.55833,   0.18764,   0.00000  )

     Band symmetry, C_2v (mm2)  point group:

     e(  1 -  1) =    -39.35143  eV     1   --> A_1  D_1  S_1  
     e(  2 -  2) =     -2.07765  eV     1   --> B_2  D_4  S_4  
     e(  3 -  3) =     -1.01463  eV     1   --> A_1  D_1  S_1  
     e(  4 -  4) =      3.18514  eV     1   --> A_1  D_1  S_1  
     e(  5 -  5) =      7.47440  eV     1   --> A_2  D_2  S_2  
     e(  6 -  6) =      9.74463  eV     1   --> B_1  D_3  S_3  
     e(  7 -  7) =     12.46066  eV     1   --> B_2  D_4  S_4  
     e(  8 -  8) =     13.11896  eV     1   --> A_1  D_1  S_1  
     e(  9 -  9) =     16.57156  eV     1   --> A_1  D_1  S_1  

 **************************************************************************

 **************************************************************************

                    xk=(   0.56250,   0.18042,   0.00000  )

     Band symmetry, C_2v (mm2)  point group:

     e(  1 -  1) =    -39.35135  eV     1   --> A_1  D_1  S_1  
     e(  2 -  2) =     -2.05348  eV     1   --> B_2  D_4  S_4  
     e(  3 -  3) =     -0.99678  eV     1   --> A_1  D_1  S_1  
     e(  4 -  4) =      3.08065  eV     1   --> A_1  D_1  S_1  
     e(  5 -  5) =      7.50487  eV     1   --> A_2  D_2  S_2  
     e(  6 -  6) =      9.74537  eV     1   --> B_1  D_3  S_3  
     e(  7 -  7) =     12.48320  eV     1   --> B_2  D_4  S_4  
     e(  8 -  8) =     13.22947  eV     1   --> A_1  D_1  S_1  
     e(  9 -  9) =     16.55391  eV     1   --> A_1  D_1  S_1  

 **************************************************************************

 **************************************************************************

                    xk=(   0.56667,   0.17321,   0.00000  )

     Band symmetry, C_2v (mm2)  point group:

     e(  1 -  1) =    -39.35126  eV     1   --> A_1  D_1  S_1  
     e(  2 -  2) =     -2.02765  eV     1   --> B_2  D_4  S_4  
     e(  3 -  3) =     -0.97796  eV     1   --> A_1  D_1  S_1  
     e(  4 -  4) =      2.97290  eV     1   --> A_1  D_1  S_1  
     e(  5 -  5) =      7.53743  eV     1   --> A_2  D_2  S_2  
     e(  6 -  6) =      9.74532  eV     1   --> B_1  D_3  S_3  
     e(  7 -  7) =     12.50729  eV     1   --> B_2  D_4  S_4  
     e(  8 -  8) =     13.33930  eV     1   --> A_1  D_1  S_1  
     e(  9 -  9) =     16.54147  eV     1   --> A_1  D_1  S_1  

 **************************************************************************

 **************************************************************************

                    xk=(   0.57083,   0.16599,   0.00000  )

     Band symmetry, C_2v (mm2)  point group:

     e(  1 -  1) =    -39.35118  eV     1   --> A_1  D_1  S_1  
     e(  2 -  2) =     -2.00016  eV     1   --> B_2  D_4  S_4  
     e(  3 -  3) =     -0.95824  eV     1   --> A_1  D_1  S_1  
     e(  4 -  4) =      2.86239  eV     1   --> A_1  D_1  S_1  
     e(  5 -  5) =      7.57207  eV     1   --> A_2  D_2  S_2  
     e(  6 -  6) =      9.74428  eV     1   --> B_1  D_3  S_3  
     e(  7 -  7) =     12.53291  eV     1   --> B_2  D_4  S_4  
     e(  8 -  8) =     13.44677  eV     1   --> A_1  D_1  S_1  
     e(  9 -  9) =     16.53564  eV     1   --> A_1  D_1  S_1  

 **************************************************************************

 **************************************************************************

                    xk=(   0.57500,   0.15877,   0.00000  )

     Band symmetry, C_2v (mm2)  point group:

     e(  1 -  1) =    -39.35109  eV     1   --> A_1  D_1  S_1  
     e(  2 -  2) =     -1.97102  eV     1   --> B_2  D_4  S_4  
     e(  3 -  3) =     -0.93769  eV     1   --> A_1  D_1  S_1  
     e(  4 -  4) =      2.74961  eV     1   --> A_1  D_1  S_1  
     e(  5 -  5) =      7.60880  eV     1   --> A_2  D_2  S_2  
     e(  6 -  6) =      9.74206  eV     1   --> B_1  D_3  S_3  
     e(  7 -  7) =     12.56007  eV     1   --> B_2  D_4  S_4  
     e(  8 -  8) =     13.55011  eV     1   --> A_1  D_1  S_1  
     e(  9 -  9) =     16.53795  eV     1   --> A_1  D_1  S_1  

 **************************************************************************

 **************************************************************************

                    xk=(   0.57917,   0.15155,   0.00000  )

     Band symmetry, C_2v (mm2)  point group:

     e(  1 -  1) =    -39.35099  eV     1   --> A_1  D_1  S_1  
     e(  2 -  2) =     -1.94022  eV     1   --> B_2  D_4  S_4  
     e(  3 -  3) =     -0.91642  eV     1   --> A_1  D_1  S_1  
     e(  4 -  4) =      2.63502  eV     1   --> A_1  D_1  S_1  
     e(  5 -  5) =      7.64759  eV     1   --> A_2  D_2  S_2  
     e(  6 -  6) =      9.73845  eV     1   --> B_1  D_3  S_3  
     e(  7 -  7) =     12.58877  eV     1   --> B_2  D_4  S_4  
     e(  8 -  8) =     13.64746  eV     1   --> A_1  D_1  S_1  
     e(  9 -  9) =     16.39351  eV     1   --> B_1  D_3  S_3  

 **************************************************************************

 **************************************************************************

                    xk=(   0.58333,   0.14434,   0.00000  )

     Band symmetry, C_2v (mm2)  point group:

     e(  1 -  1) =    -39.35090  eV     1   --> A_1  D_1  S_1  
     e(  2 -  2) =     -1.90776  eV     1   --> B_2  D_4  S_4  
     e(  3 -  3) =     -0.89453  eV     1   --> A_1  D_1  S_1  
     e(  4 -  4) =      2.51909  eV     1   --> A_1  D_1  S_1  
     e(  5 -  5) =      7.68846  eV     1   --> A_2  D_2  S_2  
     e(  6 -  6) =      9.73321  eV     1   --> B_1  D_3  S_3  
     e(  7 -  7) =     12.61900  eV     1   --> B_2  D_4  S_4  
     e(  8 -  8) =     13.73699  eV     1   --> A_1  D_1  S_1  
     e(  9 -  9) =     16.25318  eV     1   --> B_1  D_3  S_3  

 **************************************************************************

 **************************************************************************

                    xk=(   0.58750,   0.13712,   0.00000  )

     Band symmetry, C_2v (mm2)  point group:

     e(  1 -  1) =    -39.35080  eV     1   --> A_1  D_1  S_1  
     e(  2 -  2) =     -1.87366  eV     1   --> B_2  D_4  S_4  
     e(  3 -  3) =     -0.87217  eV     1   --> A_1  D_1  S_1  
     e(  4 -  4) =      2.40226  eV     1   --> A_1  D_1  S_1  
     e(  5 -  5) =      7.73140  eV     1   --> A_2  D_2  S_2  
     e(  6 -  6) =      9.72610  eV     1   --> B_1  D_3  S_3  
     e(  7 -  7) =     12.65076  eV     1   --> B_2  D_4  S_4  
     e(  8 -  8) =     13.81698  eV     1   --> A_1  D_1  S_1  
     e(  9 -  9) =     16.11633  eV     1   --> B_1  D_3  S_3  

 **************************************************************************

 **************************************************************************

                    xk=(   0.59167,   0.12990,   0.00000  )

     Band symmetry, C_2v (mm2)  point group:

     e(  1 -  1) =    -39.35071  eV     1   --> A_1  D_1  S_1  
     e(  2 -  2) =     -1.83790  eV     1   --> B_2  D_4  S_4  
     e(  3 -  3) =     -0.84949  eV     1   --> A_1  D_1  S_1  
     e(  4 -  4) =      2.28499  eV     1   --> A_1  D_1  S_1  
     e(  5 -  5) =      7.77639  eV     1   --> A_2  D_2  S_2  
     e(  6 -  6) =      9.71688  eV     1   --> B_1  D_3  S_3  
     e(  7 -  7) =     12.68404  eV     1   --> B_2  D_4  S_4  
     e(  8 -  8) =     13.88596  eV     1   --> A_1  D_1  S_1  
     e(  9 -  9) =     15.98349  eV     1   --> B_1  D_3  S_3  

 **************************************************************************

 **************************************************************************

                    xk=(   0.59583,   0.12269,   0.00000  )

     Band symmetry, C_2v (mm2)  point group:

     e(  1 -  1) =    -39.35061  eV     1   --> A_1  D_1  S_1  
     e(  2 -  2) =     -1.80050  eV     1   --> B_2  D_4  S_4  
     e(  3 -  3) =     -0.82670  eV     1   --> A_1  D_1  S_1  
     e(  4 -  4) =      2.16775  eV     1   --> A_1  D_1  S_1  
     e(  5 -  5) =      7.82345  eV     1   --> A_2  D_2  S_2  
     e(  6 -  6) =      9.70528  eV     1   --> B_1  D_3  S_3  
     e(  7 -  7) =     12.71884  eV     1   --> B_2  D_4  S_4  
     e(  8 -  8) =     13.94284  eV     1   --> A_1  D_1  S_1  
     e(  9 -  9) =     15.85519  eV     1   --> B_1  D_3  S_3  

 **************************************************************************

 **************************************************************************

                    xk=(   0.60000,   0.11547,   0.00000  )

     Band symmetry, C_2v (mm2)  point group:

     e(  1 -  1) =    -39.35052  eV     1   --> A_1  D_1  S_1  
     e(  2 -  2) =     -1.76146  eV     1   --> B_2  D_4  S_4  
     e(  3 -  3) =     -0.80402  eV     1   --> A_1  D_1  S_1  
     e(  4 -  4) =      2.05102  eV     1   --> A_1  D_1  S_1  
     e(  5 -  5) =      7.87256  eV     1   --> A_2  D_2  S_2  
     e(  6 -  6) =      9.69104  eV     1   --> B_1  D_3  S_3  
     e(  7 -  7) =     12.75516  eV     1   --> B_2  D_4  S_4  
     e(  8 -  8) =     13.98700  eV     1   --> A_1  D_1  S_1  
     e(  9 -  9) =     15.73191  eV     1   --> B_1  D_3  S_3  

 **************************************************************************

 **************************************************************************

                    xk=(   0.60417,   0.10825,   0.00000  )

     Band symmetry, C_2v (mm2)  point group:

     e(  1 -  1) =    -39.35043  eV     1   --> A_1  D_1  S_1  
     e(  2 -  2) =     -1.72077  eV     1   --> B_2  D_4  S_4  
     e(  3 -  3) =     -0.78173  eV     1   --> A_1  D_1  S_1  
     e(  4 -  4) =      1.93530  eV     1   --> A_1  D_1  S_1  
     e(  5 -  5) =      7.92371  eV     1   --> A_2  D_2  S_2  
     e(  6 -  6) =      9.67387  eV     1   --> B_1  D_3  S_3  
     e(  7 -  7) =     12.79298  eV     1   --> B_2  D_4  S_4  
     e(  8 -  8) =     14.01834  eV     1   --> A_1  D_1  S_1  
     e(  9 -  9) =     15.61410  eV     1   --> B_1  D_3  S_3  

 **************************************************************************

 **************************************************************************

                    xk=(   0.60833,   0.10104,   0.00000  )

     Band symmetry, C_2v (mm2)  point group:

     e(  1 -  1) =    -39.35034  eV     1   --> A_1  D_1  S_1  
     e(  2 -  2) =     -1.67845  eV     1   --> B_2  D_4  S_4  
     e(  3 -  3) =     -0.76018  eV     1   --> A_1  D_1  S_1  
     e(  4 -  4) =      1.82115  eV     1   --> A_1  D_1  S_1  
     e(  5 -  5) =      7.97691  eV     1   --> A_2  D_2  S_2  
     e(  6 -  6) =      9.65352  eV     1   --> B_1  D_3  S_3  
     e(  7 -  7) =     12.83231  eV     1   --> B_2  D_4  S_4  
     e(  8 -  8) =     14.03724  eV     1   --> A_1  D_1  S_1  
     e(  9 -  9) =     15.50221  eV     1   --> B_1  D_3  S_3  

 **************************************************************************

 **************************************************************************

                    xk=(   0.61250,   0.09382,   0.00000  )

     Band symmetry, C_2v (mm2)  point group:

     e(  1 -  1) =    -39.35025  eV     1   --> A_1  D_1  S_1  
     e(  2 -  2) =     -1.63448  eV     1   --> B_2  D_4  S_4  
     e(  3 -  3) =     -0.73977  eV     1   --> A_1  D_1  S_1  
     e(  4 -  4) =      1.70916  eV     1   --> A_1  D_1  S_1  
     e(  5 -  5) =      8.03215  eV     1   --> A_2  D_2  S_2  
     e(  6 -  6) =      9.62971  eV     1   --> B_1  D_3  S_3  
     e(  7 -  7) =     12.87313  eV     1   --> B_2  D_4  S_4  
     e(  8 -  8) =     14.04448  eV     1   --> A_1  D_1  S_1  
     e(  9 -  9) =     15.39666  eV     1   --> B_1  D_3  S_3  

 **************************************************************************

 **************************************************************************

                    xk=(   0.61667,   0.08660,   0.00000  )

     Band symmetry, C_2v (mm2)  point group:

     e(  1 -  1) =    -39.35016  eV     1   --> A_1  D_1  S_1  
     e(  2 -  2) =     -1.58889  eV     1   --> B_2  D_4  S_4  
     e(  3 -  3) =     -0.72101  eV     1   --> A_1  D_1  S_1  
     e(  4 -  4) =      1.60000  eV     1   --> A_1  D_1  S_1  
     e(  5 -  5) =      8.08941  eV     1   --> A_2  D_2  S_2  
     e(  6 -  6) =      9.60220  eV     1   --> B_1  D_3  S_3  
     e(  7 -  7) =     12.91543  eV     1   --> B_2  D_4  S_4  
     e(  8 -  8) =     14.04106  eV     1   --> A_1  D_1  S_1  
     e(  9 -  9) =     15.29782  eV     1   --> B_1  D_3  S_3  

 **************************************************************************

 **************************************************************************

                    xk=(   0.62083,   0.07939,   0.00000  )

     Band symmetry, C_2v (mm2)  point group:

     e(  1 -  1) =    -39.35008  eV     1   --> A_1  D_1  S_1  
     e(  2 -  2) =     -1.54166  eV     1   --> B_2  D_4  S_4  
     e(  3 -  3) =     -0.70448  eV     1   --> A_1  D_1  S_1  
     e(  4 -  4) =      1.49443  eV     1   --> A_1  D_1  S_1  
     e(  5 -  5) =      8.14870  eV     1   --> A_2  D_2  S_2  
     e(  6 -  6) =      9.57075  eV     1   --> B_1  D_3  S_3  
     e(  7 -  7) =     12.95921  eV     1   --> B_2  D_4  S_4  
     e(  8 -  8) =     14.02813  eV     1   --> A_1  D_1  S_1  
     e(  9 -  9) =     15.20604  eV     1   --> B_1  D_3  S_3  

 **************************************************************************

 **************************************************************************

                    xk=(   0.62500,   0.07217,   0.00000  )

     Band symmetry, C_2v (mm2)  point group:

     e(  1 -  1) =    -39.35000  eV     1   --> A_1  D_1  S_1  
     e(  2 -  2) =     -1.49280  eV     1   --> B_2  D_4  S_4  
     e(  3 -  3) =     -0.69091  eV     1   --> A_1  D_1  S_1  
     e(  4 -  4) =      1.39330  eV     1   --> A_1  D_1  S_1  
     e(  5 -  5) =      8.21000  eV     1   --> A_2  D_2  S_2  
     e(  6 -  6) =      9.53515  eV     1   --> B_1  D_3  S_3  
     e(  7 -  7) =     13.00446  eV     1   --> B_2  D_4  S_4  
     e(  8 -  8) =     14.00689  eV     1   --> A_1  D_1  S_1  
     e(  9 -  9) =     15.12165  eV     1   --> B_1  D_3  S_3  

 **************************************************************************

 **************************************************************************

                    xk=(   0.62917,   0.06495,   0.00000  )

     Band symmetry, C_2v (mm2)  point group:

     e(  1 -  1) =    -39.34993  eV     1   --> A_1  D_1  S_1  
     e(  2 -  2) =     -1.44232  eV     1   --> B_2  D_4  S_4  
     e(  3 -  3) =     -0.68111  eV     1   --> A_1  D_1  S_1  
     e(  4 -  4) =      1.29757  eV     1   --> A_1  D_1  S_1  
     e(  5 -  5) =      8.27331  eV     1   --> A_2  D_2  S_2  
     e(  6 -  6) =      9.49521  eV     1   --> B_1  D_3  S_3  
     e(  7 -  7) =     13.05116  eV     1   --> B_2  D_4  S_4  
     e(  8 -  8) =     13.97844  eV     1   --> A_1  D_1  S_1  
     e(  9 -  9) =     15.04491  eV     1   --> B_1  D_3  S_3  

 **************************************************************************

 **************************************************************************

                    xk=(   0.63333,   0.05774,   0.00000  )

     Band symmetry, C_2v (mm2)  point group:

     e(  1 -  1) =    -39.34986  eV     1   --> A_1  D_1  S_1  
     e(  2 -  2) =     -1.39022  eV     1   --> B_2  D_4  S_4  
     e(  3 -  3) =     -0.67604  eV     1   --> A_1  D_1  S_1  
     e(  4 -  4) =      1.20833  eV     1   --> A_1  D_1  S_1  
     e(  5 -  5) =      8.33861  eV     1   --> A_2  D_2  S_2  
     e(  6 -  6) =      9.45081  eV     1   --> B_1  D_3  S_3  
     e(  7 -  7) =     13.09931  eV     1   --> B_2  D_4  S_4  
     e(  8 -  8) =     13.94384  eV     1   --> A_1  D_1  S_1  
     e(  9 -  9) =     14.97605  eV     1   --> B_1  D_3  S_3  

 **************************************************************************

 **************************************************************************

                    xk=(   0.63750,   0.05052,   0.00000  )

     Band symmetry, C_2v (mm2)  point group:

     e(  1 -  1) =    -39.34980  eV     1   --> A_1  D_1  S_1  
     e(  2 -  2) =     -1.33650  eV     1   --> B_2  D_4  S_4  
     e(  3 -  3) =     -0.67675  eV     1   --> A_1  D_1  S_1  
     e(  4 -  4) =      1.12672  eV     1   --> A_1  D_1  S_1  
     e(  5 -  5) =      8.40592  eV     1   --> A_2  D_2  S_2  
     e(  6 -  6) =      9.40184  eV     1   --> B_1  D_3  S_3  
     e(  7 -  7) =     13.14888  eV     1   --> B_2  D_4  S_4  
     e(  8 -  8) =     13.90400  eV     1   --> A_1  D_1  S_1  
     e(  9 -  9) =     14.91524  eV     1   --> B_1  D_3  S_3  

 **************************************************************************

 **************************************************************************

                    xk=(   0.64167,   0.04330,   0.00000  )

     Band symmetry, C_2v (mm2)  point group:

     e(  1 -  1) =    -39.34974  eV     1   --> A_1  D_1  S_1  
     e(  2 -  2) =     -1.28117  eV     1   --> B_2  D_4  S_4  
     e(  3 -  3) =     -0.68433  eV     1   --> A_1  D_1  S_1  
     e(  4 -  4) =      1.05394  eV     1   --> A_1  D_1  S_1  
     e(  5 -  5) =      8.47520  eV     1   --> A_2  D_2  S_2  
     e(  6 -  6) =      9.34823  eV     1   --> B_1  D_3  S_3  
     e(  7 -  7) =     13.19988  eV     1   --> B_2  D_4  S_4  
     e(  8 -  8) =     13.85975  eV     1   --> A_1  D_1  S_1  
     e(  9 -  9) =     14.86262  eV     1   --> B_1  D_3  S_3  

 **************************************************************************

 **************************************************************************

                    xk=(   0.64583,   0.03608,   0.00000  )

     Band symmetry, C_2v (mm2)  point group:

     e(  1 -  1) =    -39.34969  eV     1   --> A_1  D_1  S_1  
     e(  2 -  2) =     -1.22423  eV     1   --> B_2  D_4  S_4  
     e(  3 -  3) =     -0.69983  eV     1   --> A_1  D_1  S_1  
     e(  4 -  4) =      0.99113  eV     1   --> A_1  D_1  S_1  
     e(  5 -  5) =      8.54647  eV     1   --> A_2  D_2  S_2  
     e(  6 -  6) =      9.28998  eV     1   --> B_1  D_3  S_3  
     e(  7 -  7) =     13.25227  eV     1   --> B_2  D_4  S_4  
     e(  8 -  8) =     13.81179  eV     1   --> A_1  D_1  S_1  
     e(  9 -  9) =     14.81824  eV     1   --> B_1  D_3  S_3  

 **************************************************************************

 **************************************************************************

                    xk=(   0.65000,   0.02887,   0.00000  )

     Band symmetry, C_2v (mm2)  point group:

     e(  1 -  1) =    -39.34965  eV     1   --> A_1  D_1  S_1  
     e(  2 -  2) =     -1.16568  eV     1   --> B_2  D_4  S_4  
     e(  3 -  3) =     -0.72413  eV     1   --> A_1  D_1  S_1  
     e(  4 -  4) =      0.93926  eV     1   --> A_1  D_1  S_1  
     e(  5 -  5) =      8.61969  eV     1   --> A_2  D_2  S_2  
     e(  6 -  6) =      9.22713  eV     1   --> B_1  D_3  S_3  
     e(  7 -  7) =     13.30604  eV     1   --> B_2  D_4  S_4  
     e(  8 -  8) =     13.76071  eV     1   --> A_1  D_1  S_1  
     e(  9 -  9) =     14.78213  eV     1   --> B_1  D_3  S_3  

 **************************************************************************

 **************************************************************************

                    xk=(   0.65417,   0.02165,   0.00000  )

     Band symmetry, C_2v (mm2)  point group:

     e(  1 -  1) =    -39.34962  eV     1   --> A_1  D_1  S_1  
     e(  2 -  2) =     -1.10553  eV     1   --> B_2  D_4  S_4  
     e(  3 -  3) =     -0.75785  eV     1   --> A_1  D_1  S_1  
     e(  4 -  4) =      0.89902  eV     1   --> A_1  D_1  S_1  
     e(  5 -  5) =      8.69487  eV     1   --> A_2  D_2  S_2  
     e(  6 -  6) =      9.15976  eV     1   --> B_1  D_3  S_3  
     e(  7 -  7) =     13.36118  eV     1   --> B_2  D_4  S_4  
     e(  8 -  8) =     13.70704  eV     1   --> A_1  D_1  S_1  
     e(  9 -  9) =     14.75425  eV     1   --> B_1  D_3  S_3  

 **************************************************************************

 **************************************************************************

                    xk=(   0.65833,   0.01443,   0.00000  )

     Band symmetry, C_2v (mm2)  point group:

     e(  1 -  1) =    -39.34960  eV     1   --> A_1  D_1  S_1  
     e(  2 -  2) =     -1.04378  eV     1   --> B_2  D_4  S_4  
     e(  3 -  3) =     -0.80119  eV     1   --> A_1  D_1  S_1  
     e(  4 -  4) =      0.87067  eV     1   --> A_1  D_1  S_1  
     e(  5 -  5) =      8.77199  eV     1   --> A_2  D_2  S_2  
     e(  6 -  6) =      9.08801  eV     1   --> B_1  D_3  S_3  
     e(  7 -  7) =     13.41765  eV     1   --> B_2  D_4  S_4  
     e(  8 -  8) =     13.65121  eV     1   --> A_1  D_1  S_1  
     e(  9 -  9) =     14.73452  eV     1   --> B_1  D_3  S_3  

 **************************************************************************

 **************************************************************************

                    xk=(   0.66250,   0.00722,   0.00000  )

     Band symmetry, C_2v (mm2)  point group:

     e(  1 -  1) =    -39.34958  eV     1   --> A_1  D_1  S_1  
     e(  2 -  2) =     -0.98045  eV     1   --> B_2  D_4  S_4  
     e(  3 -  3) =     -0.85394  eV     1   --> A_1  D_1  S_1  
     e(  4 -  4) =      0.85409  eV     1   --> A_1  D_1  S_1  
     e(  5 -  5) =      8.85105  eV     1   --> A_2  D_2  S_2  
     e(  6 -  6) =      9.01203  eV     1   --> B_1  D_3  S_3  
     e(  7 -  7) =     13.47544  eV     1   --> B_2  D_4  S_4  
     e(  8 -  8) =     13.59360  eV     1   --> A_1  D_1  S_1  
     e(  9 -  9) =     14.72280  eV     1   --> B_1  D_3  S_3  

 **************************************************************************

 **************************************************************************

                    xk=(   0.66667,   0.00000,   0.00000  )

     point group D_3h (-62m)
     there are  6 classes
     the character table:

       E     2C3   3C2   s_h   2S3   3s_v 
A'_1   1.00  1.00  1.00  1.00  1.00  1.00
A'_2   1.00  1.00 -1.00  1.00  1.00 -1.00
E'     2.00 -1.00  0.00  2.00 -1.00  0.00
A''1   1.00  1.00  1.00 -1.00 -1.00 -1.00
A''2   1.00  1.00 -1.00 -1.00 -1.00  1.00
E''    2.00 -1.00  0.00 -2.00  1.00  0.00

     the symmetry operations in each class and the name of the first element:

     E        1
                                                                 
     2C3      3    4
                                                                 
     3C2      2    5    6
                                                                 
     s_h      7
                                                                 
     2S3      9   10
                                                                 
     3s_v     8   12   11
                                                                 

     Band symmetry, D_3h (-62m) point group:

     e(  1 -  1) =    -39.34958  eV     1   --> A'_1           
     e(  2 -  3) =     -0.91552  eV     2   --> E'             
     e(  4 -  4) =      0.84874  eV     1   --> A'_1           
     e(  5 -  6) =      8.93203  eV     2   --> E''            
     e(  7 -  8) =     13.53452  eV     2   --> E'             
     e(  9 -  9) =     14.71894  eV     1   --> A''2           

 **************************************************************************

 **************************************************************************

                    xk=(   0.65000,   0.00000,   0.00000  )

     point group C_2v (mm2) 
     there are  4 classes
     the character table:

       E     C2    s_v   s_v' 
A_1    1.00  1.00  1.00  1.00
A_2    1.00  1.00 -1.00 -1.00
B_1    1.00 -1.00  1.00 -1.00
B_2    1.00 -1.00 -1.00  1.00

     the symmetry operations in each class and the name of the first element:

     E        1
                                                                 
     C2       2
                                                                 
     s_v      4
                                                                 
     s_v'     3
                                                                 

     Band symmetry, C_2v (mm2)  point group:

     e(  1 -  1) =    -39.34960  eV     1   --> A_1  D_1  S_1  
     e(  2 -  2) =     -1.06150  eV     1   --> A_1  D_1  S_1  
     e(  3 -  3) =     -0.78093  eV     1   --> B_2  D_4  S_4  
     e(  4 -  4) =      0.86825  eV     1   --> A_1  D_1  S_1  
     e(  5 -  5) =      8.76092  eV     1   --> B_1  D_3  S_3  
     e(  6 -  6) =      9.09970  eV     1   --> A_2  D_2  S_2  
     e(  7 -  7) =     13.41303  eV     1   --> A_1  D_1  S_1  
     e(  8 -  8) =     13.65643  eV     1   --> B_2  D_4  S_4  
     e(  9 -  9) =     14.73395  eV     1   --> B_1  D_3  S_3  

 **************************************************************************

 **************************************************************************

                    xk=(   0.63333,   0.00000,   0.00000  )

     Band symmetry, C_2v (mm2)  point group:

     e(  1 -  1) =    -39.34966  eV     1   --> A_1  D_1  S_1  
     e(  2 -  2) =     -1.23091  eV     1   --> A_1  D_1  S_1  
     e(  3 -  3) =     -0.64005  eV     1   --> B_2  D_4  S_4  
     e(  4 -  4) =      0.92135  eV     1   --> A_1  D_1  S_1  
     e(  5 -  5) =      8.57674  eV     1   --> B_1  D_3  S_3  
     e(  6 -  6) =      9.27489  eV     1   --> A_2  D_2  S_2  
     e(  7 -  7) =     13.28847  eV     1   --> A_1  D_1  S_1  
     e(  8 -  8) =     13.78310  eV     1   --> B_2  D_4  S_4  
     e(  9 -  9) =     14.77770  eV     1   --> B_1  D_3  S_3  

 **************************************************************************

 **************************************************************************

                    xk=(   0.61667,   0.00000,   0.00000  )

     Band symmetry, C_2v (mm2)  point group:

     e(  1 -  1) =    -39.34978  eV     1   --> A_1  D_1  S_1  
     e(  2 -  2) =     -1.41594  eV     1   --> A_1  D_1  S_1  
     e(  3 -  3) =     -0.49294  eV     1   --> B_2  D_4  S_4  
     e(  4 -  4) =      1.00052  eV     1   --> A_1  D_1  S_1  
     e(  5 -  5) =      8.38176  eV     1   --> B_1  D_3  S_3  
     e(  6 -  6) =      9.45751  eV     1   --> A_2  D_2  S_2  
     e(  7 -  7) =     13.16216  eV     1   --> A_1  D_1  S_1  
     e(  8 -  8) =     13.91419  eV     1   --> B_2  D_4  S_4  
     e(  9 -  9) =     14.84812  eV     1   --> B_1  D_3  S_3  

 **************************************************************************

 **************************************************************************

                    xk=(   0.60000,   0.00000,   0.00000  )

     Band symmetry, C_2v (mm2)  point group:

     e(  1 -  1) =    -39.34994  eV     1   --> A_1  D_1  S_1  
     e(  2 -  2) =     -1.61045  eV     1   --> A_1  D_1  S_1  
     e(  3 -  3) =     -0.33964  eV     1   --> B_2  D_4  S_4  
     e(  4 -  4) =      1.09986  eV     1   --> A_1  D_1  S_1  
     e(  5 -  5) =      8.17822  eV     1   --> B_1  D_3  S_3  
     e(  6 -  6) =      9.64740  eV     1   --> A_2  D_2  S_2  
     e(  7 -  7) =     13.03505  eV     1   --> A_1  D_1  S_1  
     e(  8 -  8) =     14.04930  eV     1   --> B_2  D_4  S_4  
     e(  9 -  9) =     14.94308  eV     1   --> B_1  D_3  S_3  

 **************************************************************************

 **************************************************************************

                    xk=(   0.58333,   0.00000,   0.00000  )

     Band symmetry, C_2v (mm2)  point group:

     e(  1 -  1) =    -39.35015  eV     1   --> A_1  D_1  S_1  
     e(  2 -  2) =     -1.81002  eV     1   --> A_1  D_1  S_1  
     e(  3 -  3) =     -0.18022  eV     1   --> B_2  D_4  S_4  
     e(  4 -  4) =      1.21509  eV     1   --> A_1  D_1  S_1  
     e(  5 -  5) =      7.96827  eV     1   --> B_1  D_3  S_3  
     e(  6 -  6) =      9.84443  eV     1   --> A_2  D_2  S_2  
     e(  7 -  7) =     12.90790  eV     1   --> A_1  D_1  S_1  
     e(  8 -  8) =     14.18793  eV     1   --> B_2  D_4  S_4  
     e(  9 -  9) =     15.06056  eV     1   --> B_1  D_3  S_3  

 **************************************************************************

[...]

                    xk=(   0.23750,   0.13712,   0.42955  )

     Band symmetry, C_2v (mm2)  point group:

     e(  1 -  1) =    -39.36045  eV     1   --> A_1  D_1  S_1  
     e(  2 -  2) =     -4.25139  eV     1   --> B_2  D_4  S_4  
     e(  3 -  3) =      1.33249  eV     1   --> A_1  D_1  S_1  
     e(  4 -  4) =      3.87705  eV     1   --> B_2  D_4  S_4  
     e(  5 -  5) =      5.52698  eV     1   --> A_2  D_2  S_2  
     e(  6 -  6) =     11.43098  eV     1   --> A_1  D_1  S_1  
     e(  7 -  7) =     13.59724  eV     1   --> B_2  D_4  S_4  
     e(  8 -  8) =     17.09674  eV     1   --> B_1  D_3  S_3  
     e(  9 -  9) =     17.75506  eV     1   --> A_2  D_2  S_2  

 **************************************************************************

 **************************************************************************

                    xk=(   0.25000,   0.14434,   0.42955  )

     Band symmetry, C_2v (mm2)  point group:

     e(  1 -  1) =    -39.35969  eV     1   --> A_1  D_1  S_1  
     e(  2 -  2) =     -4.14853  eV     1   --> B_2  D_4  S_4  
     e(  3 -  3) =      1.42259  eV     1   --> A_1  D_1  S_1  
     e(  4 -  4) =      3.62886  eV     1   --> B_2  D_4  S_4  
     e(  5 -  5) =      5.43099  eV     1   --> A_2  D_2  S_2  
     e(  6 -  6) =     11.12722  eV     1   --> A_1  D_1  S_1  
     e(  7 -  7) =     13.54651  eV     1   --> B_2  D_4  S_4  
     e(  8 -  8) =     16.96010  eV     1   --> B_1  D_3  S_3  
     e(  9 -  9) =     18.06759  eV     1   --> A_2  D_2  S_2  

 **************************************************************************

 **************************************************************************

                    xk=(   0.26250,   0.15155,   0.42955  )

     Band symmetry, C_2v (mm2)  point group:

     e(  1 -  1) =    -39.35892  eV     1   --> A_1  D_1  S_1  
     e(  2 -  2) =     -4.04053  eV     1   --> B_2  D_4  S_4  
     e(  3 -  3) =      1.51657  eV     1   --> A_1  D_1  S_1  
     e(  4 -  4) =      3.37959  eV     1   --> B_2  D_4  S_4  
     e(  5 -  5) =      5.33794  eV     1   --> A_2  D_2  S_2  
     e(  6 -  6) =     10.82722  eV     1   --> A_1  D_1  S_1  
     e(  7 -  7) =     13.49661  eV     1   --> B_2  D_4  S_4  
     e(  8 -  8) =     16.82973  eV     1   --> B_1  D_3  S_3  
     e(  9 -  9) =     18.38589  eV     1   --> A_2  D_2  S_2  

 **************************************************************************

 **************************************************************************

                    xk=(   0.27500,   0.15877,   0.42955  )

     Band symmetry, C_2v (mm2)  point group:

     e(  1 -  1) =    -39.35816  eV     1   --> A_1  D_1  S_1  
     e(  2 -  2) =     -3.92741  eV     1   --> B_2  D_4  S_4  
     e(  3 -  3) =      1.61422  eV     1   --> A_1  D_1  S_1  
     e(  4 -  4) =      3.12984  eV     1   --> B_2  D_4  S_4  
     e(  5 -  5) =      5.24818  eV     1   --> A_2  D_2  S_2  
     e(  6 -  6) =     10.53180  eV     1   --> A_1  D_1  S_1  
     e(  7 -  7) =     13.44785  eV     1   --> B_2  D_4  S_4  
     e(  8 -  8) =     16.70572  eV     1   --> B_1  D_3  S_3  
     e(  9 -  9) =     18.42208  eV     1   --> A_1  D_1  S_1  

 **************************************************************************

 **************************************************************************

                    xk=(   0.28750,   0.16599,   0.42955  )

     Band symmetry, C_2v (mm2)  point group:

     e(  1 -  1) =    -39.35741  eV     1   --> A_1  D_1  S_1  
     e(  2 -  2) =     -3.80921  eV     1   --> B_2  D_4  S_4  
     e(  3 -  3) =      1.71531  eV     1   --> A_1  D_1  S_1  
     e(  4 -  4) =      2.88013  eV     1   --> B_2  D_4  S_4  
     e(  5 -  5) =      5.16200  eV     1   --> A_2  D_2  S_2  
     e(  6 -  6) =     10.24168  eV     1   --> A_1  D_1  S_1  
     e(  7 -  7) =     13.40052  eV     1   --> B_2  D_4  S_4  
     e(  8 -  8) =     16.58813  eV     1   --> B_1  D_3  S_3  
     e(  9 -  9) =     18.43651  eV     1   --> A_1  D_1  S_1  

 **************************************************************************

 **************************************************************************

                    xk=(   0.30000,   0.17321,   0.42955  )

     Band symmetry, C_2v (mm2)  point group:

     e(  1 -  1) =    -39.35668  eV     1   --> A_1  D_1  S_1  
     e(  2 -  2) =     -3.68595  eV     1   --> B_2  D_4  S_4  
     e(  3 -  3) =      1.81954  eV     1   --> A_1  D_1  S_1  
     e(  4 -  4) =      2.63093  eV     1   --> B_2  D_4  S_4  
     e(  5 -  5) =      5.07965  eV     1   --> A_2  D_2  S_2  
     e(  6 -  6) =      9.95760  eV     1   --> A_1  D_1  S_1  
     e(  7 -  7) =     13.35487  eV     1   --> B_2  D_4  S_4  
     e(  8 -  8) =     16.47703  eV     1   --> B_1  D_3  S_3  
     e(  9 -  9) =     18.45297  eV     1   --> A_1  D_1  S_1  

 **************************************************************************

 **************************************************************************

                    xk=(   0.31250,   0.18042,   0.42955  )

     Band symmetry, C_2v (mm2)  point group:

     e(  1 -  1) =    -39.35596  eV     1   --> A_1  D_1  S_1  
     e(  2 -  2) =     -3.55766  eV     1   --> B_2  D_4  S_4  
     e(  3 -  3) =      1.92657  eV     1   --> A_1  D_1  S_1  
     e(  4 -  4) =      2.38269  eV     1   --> B_2  D_4  S_4  
     e(  5 -  5) =      5.00137  eV     1   --> A_2  D_2  S_2  
     e(  6 -  6) =      9.68026  eV     1   --> A_1  D_1  S_1  
     e(  7 -  7) =     13.31111  eV     1   --> B_2  D_4  S_4  
     e(  8 -  8) =     16.37248  eV     1   --> B_1  D_3  S_3  
     e(  9 -  9) =     18.47101  eV     1   --> A_1  D_1  S_1  

 **************************************************************************

 **************************************************************************

                    xk=(   0.32500,   0.18764,   0.42955  )

     Band symmetry, C_2v (mm2)  point group:

     e(  1 -  1) =    -39.35527  eV     1   --> A_1  D_1  S_1  
     e(  2 -  2) =     -3.42437  eV     1   --> B_2  D_4  S_4  
     e(  3 -  3) =      2.03598  eV     1   --> A_1  D_1  S_1  
     e(  4 -  4) =      2.13579  eV     1   --> B_2  D_4  S_4  
     e(  5 -  5) =      4.92737  eV     1   --> A_2  D_2  S_2  
     e(  6 -  6) =      9.41042  eV     1   --> A_1  D_1  S_1  
     e(  7 -  7) =     13.26945  eV     1   --> B_2  D_4  S_4  
     e(  8 -  8) =     16.27451  eV     1   --> B_1  D_3  S_3  
     e(  9 -  9) =     18.49018  eV     1   --> A_1  D_1  S_1  

 **************************************************************************

 **************************************************************************

                    xk=(   0.33750,   0.19486,   0.42955  )

     Band symmetry, C_2v (mm2)  point group:

     e(  1 -  1) =    -39.35460  eV     1   --> A_1  D_1  S_1  
     e(  2 -  2) =     -3.28613  eV     1   --> B_2  D_4  S_4  
     e(  3 -  3) =      1.89059  eV     1   --> B_2  D_4  S_4  
     e(  4 -  4) =      2.14724  eV     1   --> A_1  D_1  S_1  
     e(  5 -  5) =      4.85782  eV     1   --> A_2  D_2  S_2  
     e(  6 -  6) =      9.14884  eV     1   --> A_1  D_1  S_1  
     e(  7 -  7) =     13.23005  eV     1   --> B_2  D_4  S_4  
     e(  8 -  8) =     16.18317  eV     1   --> B_1  D_3  S_3  
     e(  9 -  9) =     18.51003  eV     1   --> A_1  D_1  S_1  

 **************************************************************************

 **************************************************************************

                    xk=(   0.35000,   0.20207,   0.42955  )

     Band symmetry, C_2v (mm2)  point group:

     e(  1 -  1) =    -39.35397  eV     1   --> A_1  D_1  S_1  
     e(  2 -  2) =     -3.14297  eV     1   --> B_2  D_4  S_4  
     e(  3 -  3) =      1.64741  eV     1   --> B_2  D_4  S_4  
     e(  4 -  4) =      2.25974  eV     1   --> A_1  D_1  S_1  
     e(  5 -  5) =      4.79288  eV     1   --> A_2  D_2  S_2  
     e(  6 -  6) =      8.89640  eV     1   --> A_1  D_1  S_1  
     e(  7 -  7) =     13.19307  eV     1   --> B_2  D_4  S_4  
     e(  8 -  8) =     16.09849  eV     1   --> B_1  D_3  S_3  
     e(  9 -  9) =     18.53012  eV     1   --> A_1  D_1  S_1  

 **************************************************************************

 **************************************************************************

                    xk=(   0.36250,   0.20929,   0.42955  )

     Band symmetry, C_2v (mm2)  point group:

     e(  1 -  1) =    -39.35337  eV     1   --> A_1  D_1  S_1  
     e(  2 -  2) =     -2.99495  eV     1   --> B_2  D_4  S_4  
     e(  3 -  3) =      1.40657  eV     1   --> B_2  D_4  S_4  
     e(  4 -  4) =      2.37271  eV     1   --> A_1  D_1  S_1  
     e(  5 -  5) =      4.73269  eV     1   --> A_2  D_2  S_2  
     e(  6 -  6) =      8.65406  eV     1   --> A_1  D_1  S_1  
     e(  7 -  7) =     13.15862  eV     1   --> B_2  D_4  S_4  
     e(  8 -  8) =     16.02050  eV     1   --> B_1  D_3  S_3  
     e(  9 -  9) =     18.55003  eV     1   --> A_1  D_1  S_1  

 **************************************************************************

 **************************************************************************

                    xk=(   0.37500,   0.21651,   0.42955  )

     Band symmetry, C_2v (mm2)  point group:

     e(  1 -  1) =    -39.35281  eV     1   --> A_1  D_1  S_1  
     e(  2 -  2) =     -2.84213  eV     1   --> B_2  D_4  S_4  
     e(  3 -  3) =      1.16832  eV     1   --> B_2  D_4  S_4  
     e(  4 -  4) =      2.48523  eV     1   --> A_1  D_1  S_1  
     e(  5 -  5) =      4.67737  eV     1   --> A_2  D_2  S_2  
     e(  6 -  6) =      8.42291  eV     1   --> A_1  D_1  S_1  
     e(  7 -  7) =     13.12684  eV     1   --> B_2  D_4  S_4  
     e(  8 -  8) =     15.94922  eV     1   --> B_1  D_3  S_3  
     e(  9 -  9) =     18.56938  eV     1   --> A_1  D_1  S_1  

 **************************************************************************

 **************************************************************************

                    xk=(   0.38750,   0.22372,   0.42955  )

     Band symmetry, C_2v (mm2)  point group:

     e(  1 -  1) =    -39.35229  eV     1   --> A_1  D_1  S_1  
     e(  2 -  2) =     -2.68457  eV     1   --> B_2  D_4  S_4  
     e(  3 -  3) =      0.93294  eV     1   --> B_2  D_4  S_4  
     e(  4 -  4) =      2.59618  eV     1   --> A_1  D_1  S_1  
     e(  5 -  5) =      4.62704  eV     1   --> A_2  D_2  S_2  
     e(  6 -  6) =      8.20423  eV     1   --> A_1  D_1  S_1  
     e(  7 -  7) =     13.09782  eV     1   --> B_2  D_4  S_4  
     e(  8 -  8) =     15.88468  eV     1   --> B_1  D_3  S_3  
     e(  9 -  9) =     18.58782  eV     1   --> A_1  D_1  S_1  

 **************************************************************************

 **************************************************************************

                    xk=(   0.40000,   0.23094,   0.42955  )

     Band symmetry, C_2v (mm2)  point group:

     e(  1 -  1) =    -39.35181  eV     1   --> A_1  D_1  S_1  
     e(  2 -  2) =     -2.52237  eV     1   --> B_2  D_4  S_4  
     e(  3 -  3) =      0.70069  eV     1   --> B_2  D_4  S_4  
     e(  4 -  4) =      2.70419  eV     1   --> A_1  D_1  S_1  
     e(  5 -  5) =      4.58178  eV     1   --> A_2  D_2  S_2  
     e(  6 -  6) =      7.99951  eV     1   --> A_1  D_1  S_1  
     e(  7 -  7) =     13.07165  eV     1   --> B_2  D_4  S_4  
     e(  8 -  8) =     15.82689  eV     1   --> B_1  D_3  S_3  
     e(  9 -  9) =     18.60500  eV     1   --> A_1  D_1  S_1  

 **************************************************************************

 **************************************************************************

                    xk=(   0.41250,   0.23816,   0.42955  )

     Band symmetry, C_2v (mm2)  point group:

     e(  1 -  1) =    -39.35139  eV     1   --> A_1  D_1  S_1  
     e(  2 -  2) =     -2.35564  eV     1   --> B_2  D_4  S_4  
     e(  3 -  3) =      0.47183  eV     1   --> B_2  D_4  S_4  
     e(  4 -  4) =      2.80766  eV     1   --> A_1  D_1  S_1  
     e(  5 -  5) =      4.54167  eV     1   --> A_2  D_2  S_2  
     e(  6 -  6) =      7.81048  eV     1   --> A_1  D_1  S_1  
     e(  7 -  7) =     13.04839  eV     1   --> B_2  D_4  S_4  
     e(  8 -  8) =     15.77587  eV     1   --> B_1  D_3  S_3  
     e(  9 -  9) =     18.62067  eV     1   --> A_1  D_1  S_1  

 **************************************************************************

 **************************************************************************

                    xk=(   0.42500,   0.24537,   0.42955  )

     Band symmetry, C_2v (mm2)  point group:

     e(  1 -  1) =    -39.35102  eV     1   --> A_1  D_1  S_1  
     e(  2 -  2) =     -2.18454  eV     1   --> B_2  D_4  S_4  
     e(  3 -  3) =      0.24664  eV     1   --> B_2  D_4  S_4  
     e(  4 -  4) =      2.90467  eV     1   --> A_1  D_1  S_1  
     e(  5 -  5) =      4.50677  eV     1   --> A_2  D_2  S_2  
     e(  6 -  6) =      7.63913  eV     1   --> A_1  D_1  S_1  
     e(  7 -  7) =     13.02811  eV     1   --> B_2  D_4  S_4  
     e(  8 -  8) =     15.73162  eV     1   --> B_1  D_3  S_3  
     e(  9 -  9) =     18.63461  eV     1   --> A_1  D_1  S_1  

 **************************************************************************

 **************************************************************************

                    xk=(   0.43750,   0.25259,   0.42955  )

     Band symmetry, C_2v (mm2)  point group:

     e(  1 -  1) =    -39.35070  eV     1   --> A_1  D_1  S_1  
     e(  2 -  2) =     -2.00934  eV     1   --> B_2  D_4  S_4  
     e(  3 -  3) =      0.02549  eV     1   --> B_2  D_4  S_4  
     e(  4 -  4) =      2.99303  eV     1   --> A_1  D_1  S_1  
     e(  5 -  5) =      4.47715  eV     1   --> A_2  D_2  S_2  
     e(  6 -  6) =      7.48775  eV     1   --> A_1  D_1  S_1  
     e(  7 -  7) =     13.01086  eV     1   --> B_2  D_4  S_4  
     e(  8 -  8) =     15.69416  eV     1   --> B_1  D_3  S_3  
     e(  9 -  9) =     18.64665  eV     1   --> A_1  D_1  S_1  

 **************************************************************************

 **************************************************************************

                    xk=(   0.45000,   0.25981,   0.42955  )

     Band symmetry, C_2v (mm2)  point group:

     e(  1 -  1) =    -39.35043  eV     1   --> A_1  D_1  S_1  
     e(  2 -  2) =     -1.83048  eV     1   --> B_2  D_4  S_4  
     e(  3 -  3) =     -0.19107  eV     1   --> B_2  D_4  S_4  
     e(  4 -  4) =      3.07033  eV     1   --> A_1  D_1  S_1  
     e(  5 -  5) =      4.45286  eV     1   --> A_2  D_2  S_2  
     e(  6 -  6) =      7.35880  eV     1   --> A_1  D_1  S_1  
     e(  7 -  7) =     12.99670  eV     1   --> B_2  D_4  S_4  
     e(  8 -  8) =     15.66351  eV     1   --> B_1  D_3  S_3  
     e(  9 -  9) =     18.65665  eV     1   --> A_1  D_1  S_1  

 **************************************************************************

 **************************************************************************

                    xk=(   0.46250,   0.26702,   0.42955  )

     Band symmetry, C_2v (mm2)  point group:

     e(  1 -  1) =    -39.35022  eV     1   --> A_1  D_1  S_1  
     e(  2 -  2) =     -1.64895  eV     1   --> B_2  D_4  S_4  
     e(  3 -  3) =     -0.40200  eV     1   --> B_2  D_4  S_4  
     e(  4 -  4) =      3.13402  eV     1   --> A_1  D_1  S_1  
     e(  5 -  5) =      4.43393  eV     1   --> A_2  D_2  S_2  
     e(  6 -  6) =      7.25488  eV     1   --> A_1  D_1  S_1  
     e(  7 -  7) =     12.98565  eV     1   --> B_2  D_4  S_4  
     e(  8 -  8) =     15.63966  eV     1   --> B_1  D_3  S_3  
     e(  9 -  9) =     18.66451  eV     1   --> A_1  D_1  S_1  

 **************************************************************************

 **************************************************************************

                    xk=(   0.47500,   0.27424,   0.42955  )

     Band symmetry, C_2v (mm2)  point group:

     e(  1 -  1) =    -39.35008  eV     1   --> A_1  D_1  S_1  
     e(  2 -  2) =     -1.46734  eV     1   --> B_2  D_4  S_4  
     e(  3 -  3) =     -0.60466  eV     1   --> B_2  D_4  S_4  
     e(  4 -  4) =      3.18168  eV     1   --> A_1  D_1  S_1  
     e(  5 -  5) =      4.42038  eV     1   --> A_2  D_2  S_2  
     e(  6 -  6) =      7.17846  eV     1   --> A_1  D_1  S_1  
     e(  7 -  7) =     12.97773  eV     1   --> B_2  D_4  S_4  
     e(  8 -  8) =     15.62262  eV     1   --> B_1  D_3  S_3  
     e(  9 -  9) =     18.67016  eV     1   --> A_1  D_1  S_1  

 **************************************************************************

 **************************************************************************

                    xk=(   0.48750,   0.28146,   0.42955  )

     Band symmetry, C_2v (mm2)  point group:

     e(  1 -  1) =    -39.34999  eV     1   --> A_1  D_1  S_1  
     e(  2 -  2) =     -1.29590  eV     1   --> B_2  D_4  S_4  
     e(  3 -  3) =     -0.78873  eV     1   --> B_2  D_4  S_4  
     e(  4 -  4) =      3.21121  eV     1   --> A_1  D_1  S_1  
     e(  5 -  5) =      4.41225  eV     1   --> A_2  D_2  S_2  
     e(  6 -  6) =      7.13166  eV     1   --> A_1  D_1  S_1  
     e(  7 -  7) =     12.97298  eV     1   --> B_2  D_4  S_4  
     e(  8 -  8) =     15.61239  eV     1   --> B_1  D_3  S_3  
     e(  9 -  9) =     18.67357  eV     1   --> A_1  D_1  S_1  

 **************************************************************************

 **************************************************************************

                    xk=(   0.50000,   0.28868,   0.42955  )

     point group D_2h (mmm) 
     there are  8 classes
     the character table:

       E     C2    C2'   C2''  i     s_v   s_v'  s_v''
A_g    1.00  1.00  1.00  1.00  1.00  1.00  1.00  1.00
B_1g   1.00  1.00 -1.00 -1.00  1.00  1.00 -1.00 -1.00
B_2g   1.00 -1.00  1.00 -1.00  1.00 -1.00  1.00 -1.00
B_3g   1.00 -1.00 -1.00  1.00  1.00 -1.00 -1.00  1.00
A_u    1.00  1.00  1.00  1.00 -1.00 -1.00 -1.00 -1.00
B_1u   1.00  1.00 -1.00 -1.00 -1.00 -1.00  1.00  1.00
B_2u   1.00 -1.00  1.00 -1.00 -1.00  1.00 -1.00  1.00
B_3u   1.00 -1.00 -1.00  1.00 -1.00  1.00  1.00 -1.00

     the symmetry operations in each class and the name of the first element:

     E        1
                                                                 
     C2       2
                                                                 
     C2'      4
                                                                 
     C2''     3
                                                                 
     i        5
                                                                 
     s_v      6
                                                                 
     s_v'     8
                                                                 
     s_v''    7
                                                                 

     Band symmetry, D_2h (mmm)  point group:

     e(  1 -  1) =    -39.34996  eV     1   --> A_g            
     e(  2 -  2) =     -1.19837  eV     1   --> B_2g           
     e(  3 -  3) =     -0.89047  eV     1   --> B_1u           
     e(  4 -  4) =      3.22122  eV     1   --> B_3u           
     e(  5 -  5) =      4.40953  eV     1   --> B_3g           
     e(  6 -  6) =      7.11588  eV     1   --> A_g            
     e(  7 -  7) =     12.97139  eV     1   --> B_1u           
     e(  8 -  8) =     15.60898  eV     1   --> B_2u           
     e(  9 -  9) =     18.67471  eV     1   --> A_g            

 **************************************************************************

     BANDS        :     10.71s CPU      9.63s WALL


   This run was terminated on:  23:37:14  14Dec2024            

=------------------------------------------------------------------------------=
   JOB DONE.
=------------------------------------------------------------------------------=
