
     Program PWSCF v.7.3 starts on 14Dec2024 at 22:11:51 

     This program is part of the open-source Quantum ESPRESSO suite
     for quantum simulation of materials; please cite
         "P. Giannozzi et al., J. Phys.:Condens. Matter 21 395502 (2009);
         "P. Giannozzi et al., J. Phys.:Condens. Matter 29 465901 (2017);
         "P. Giannozzi et al., J. Chem. Phys. 152 154105 (2020);
          URL http://www.quantum-espresso.org", 
     in publications or presentations arising from this work. More details at
     http://www.quantum-espresso.org/quote

     Serial version
     5162 MiB available memory on the printing compute node when the environment starts

     Waiting for input...
     Reading input from standard input

     Current dimensions of program PWSCF are:
     Max number of different atomic species (ntypx) = 10
     Max number of k-points (npk) =  40000
     Max angular momentum in pseudopotentials (lmaxx) =  4
     Message from routine iosys:
     BEWARE:  force calculation with tetrahedra (not recommanded)
     Message from routine iosys:
     BEWARE: stress calculation with tetrahedra (not recommanded)
     [opt_tetra]  Optimized tetrahedron method is used.


     G-vector sticks info
     --------------------
     sticks:   dense  smooth     PW     G-vecs:    dense   smooth      PW
     Sum         745     745    223                18961    18961    3051

     Using Slab Decomposition



     bravais-lattice index     =            4
     lattice parameter (alat)  =       5.8260  a.u.
     unit-cell volume          =     195.5727 (a.u.)^3
     number of atoms/cell      =            3
     number of atomic types    =            2
     number of electrons       =         9.00
     number of Kohn-Sham states=            9
     kinetic-energy cutoff     =      80.0000  Ry
     charge density cutoff     =     320.0000  Ry
     scf convergence threshold =      1.0E-06
     mixing beta               =       0.7000
     number of iterations used =            8  plain     mixing
     energy convergence thresh.=      1.0E-04
     force convergence thresh. =      1.0E-03
     press convergence thresh. =      5.0E-01
     Exchange-correlation= PBE
                           (   1   4   3   4   0   0   0)
     nstep                     =           50


     celldm(1)=   5.826000  celldm(2)=   0.000000  celldm(3)=   1.142000
     celldm(4)=   0.000000  celldm(5)=   0.000000  celldm(6)=   0.000000

     crystal axes: (cart. coord. in units of alat)
               a(1) = (   1.000000   0.000000   0.000000 )  
               a(2) = (  -0.500000   0.866025   0.000000 )  
               a(3) = (   0.000000   0.000000   1.142000 )  

     reciprocal axes: (cart. coord. in units 2 pi/alat)
               b(1) = (  1.000000  0.577350 -0.000000 )  
               b(2) = (  0.000000  1.154701  0.000000 )  
               b(3) = (  0.000000 -0.000000  0.875657 )  


     PseudoPot. # 1 for Li read from file:
     ./PSEUDO/Li_ONCV_PBE_sr.upf
     MD5 check sum: 50ff420e78310ffa21704f3361e624a4
     Pseudo is Norm-conserving, Zval =  3.0
     Generated using ONCVPSP code by D. R. Hamann
     Using radial grid of 1944 points,  4 beta functions with: 
                l(1) =   0
                l(2) =   0
                l(3) =   1
                l(4) =   1

     PseudoPot. # 2 for B  read from file:
     ./PSEUDO/B_ONCV_PBE_sr.upf
     MD5 check sum: 12e13f68e8dc593c0a1d43390bab284b
     Pseudo is Norm-conserving + core correction, Zval =  3.0
     Generated using ONCVPSP code by D. R. Hamann
     Using radial grid of 1534 points,  4 beta functions with: 
                l(1) =   0
                l(2) =   0
                l(3) =   1
                l(4) =   1

     atomic species   valence    mass     pseudopotential
     Li                3.00     6.94000     Li( 1.00)
     B                 3.00    10.81000     B ( 1.00)

     24 Sym. Ops., with inversion, found



   Cartesian axes

     site n.     atom                  positions (alat units)
         1        Li     tau(   1) = (   0.0000000   0.0000000   0.0000000  )
         2        B      tau(   2) = (   0.0000000   0.5773503   0.5710000  )
         3        B      tau(   3) = (   0.5000000   0.2886751   0.5710000  )

     number of k points=    50 (tetrahedron method)
                       cart. coord. in units 2pi/alat
        k(    1) = (   0.0000000   0.0000000   0.0000000), wk =   0.0039062
        k(    2) = (   0.0000000   0.0000000   0.1094571), wk =   0.0078125
        k(    3) = (   0.0000000   0.0000000   0.2189142), wk =   0.0078125
        k(    4) = (   0.0000000   0.0000000   0.3283713), wk =   0.0078125
        k(    5) = (   0.0000000   0.0000000  -0.4378284), wk =   0.0039062
        k(    6) = (   0.0000000   0.1443376   0.0000000), wk =   0.0234375
        k(    7) = (   0.0000000   0.1443376   0.1094571), wk =   0.0468750
        k(    8) = (   0.0000000   0.1443376   0.2189142), wk =   0.0468750
        k(    9) = (   0.0000000   0.1443376   0.3283713), wk =   0.0468750
        k(   10) = (   0.0000000   0.1443376  -0.4378284), wk =   0.0234375
        k(   11) = (   0.0000000   0.2886751   0.0000000), wk =   0.0234375
        k(   12) = (   0.0000000   0.2886751   0.1094571), wk =   0.0468750
        k(   13) = (   0.0000000   0.2886751   0.2189142), wk =   0.0468750
        k(   14) = (   0.0000000   0.2886751   0.3283713), wk =   0.0468750
        k(   15) = (   0.0000000   0.2886751  -0.4378284), wk =   0.0234375
        k(   16) = (   0.0000000   0.4330127   0.0000000), wk =   0.0234375
        k(   17) = (   0.0000000   0.4330127   0.1094571), wk =   0.0468750
        k(   18) = (   0.0000000   0.4330127   0.2189142), wk =   0.0468750
        k(   19) = (   0.0000000   0.4330127   0.3283713), wk =   0.0468750
        k(   20) = (   0.0000000   0.4330127  -0.4378284), wk =   0.0234375
        k(   21) = (   0.0000000  -0.5773503   0.0000000), wk =   0.0117188
        k(   22) = (   0.0000000  -0.5773503   0.1094571), wk =   0.0234375
        k(   23) = (   0.0000000  -0.5773503   0.2189142), wk =   0.0234375
        k(   24) = (   0.0000000  -0.5773503   0.3283713), wk =   0.0234375
        k(   25) = (   0.0000000  -0.5773503  -0.4378284), wk =   0.0117188
        k(   26) = (   0.1250000   0.2165064   0.0000000), wk =   0.0234375
        k(   27) = (   0.1250000   0.2165064   0.1094571), wk =   0.0468750
        k(   28) = (   0.1250000   0.2165064   0.2189142), wk =   0.0468750
        k(   29) = (   0.1250000   0.2165064   0.3283713), wk =   0.0468750
        k(   30) = (   0.1250000   0.2165064  -0.4378284), wk =   0.0234375
        k(   31) = (   0.1250000   0.3608439   0.0000000), wk =   0.0468750
        k(   32) = (   0.1250000   0.3608439   0.1094571), wk =   0.0937500
        k(   33) = (   0.1250000   0.3608439   0.2189142), wk =   0.0937500
        k(   34) = (   0.1250000   0.3608439   0.3283713), wk =   0.0937500
        k(   35) = (   0.1250000   0.3608439  -0.4378284), wk =   0.0468750
        k(   36) = (   0.1250000   0.5051815   0.0000000), wk =   0.0468750
        k(   37) = (   0.1250000   0.5051815   0.1094571), wk =   0.0937500
        k(   38) = (   0.1250000   0.5051815   0.2189142), wk =   0.0937500
        k(   39) = (   0.1250000   0.5051815   0.3283713), wk =   0.0937500
        k(   40) = (   0.1250000   0.5051815  -0.4378284), wk =   0.0468750
        k(   41) = (   0.2500000   0.4330127   0.0000000), wk =   0.0234375
        k(   42) = (   0.2500000   0.4330127   0.1094571), wk =   0.0468750
        k(   43) = (   0.2500000   0.4330127   0.2189142), wk =   0.0468750
        k(   44) = (   0.2500000   0.4330127   0.3283713), wk =   0.0468750
        k(   45) = (   0.2500000   0.4330127  -0.4378284), wk =   0.0234375
        k(   46) = (   0.2500000   0.5773503   0.0000000), wk =   0.0234375
        k(   47) = (   0.2500000   0.5773503   0.1094571), wk =   0.0468750
        k(   48) = (   0.2500000   0.5773503   0.2189142), wk =   0.0468750
        k(   49) = (   0.2500000   0.5773503   0.3283713), wk =   0.0468750
        k(   50) = (   0.2500000   0.5773503  -0.4378284), wk =   0.0234375

     Dense  grid:    18961 G-vectors     FFT dimensions: (  36,  36,  40)

     Estimated max dynamical RAM per process >      32.39 MB

     Initial potential from superposition of free atoms

     starting charge       8.9949, renormalised to       9.0000
     Starting wfcs are   10 randomized atomic wfcs

     total cpu time spent up to now is        1.8 secs

     Self-consistent Calculation

     iteration #  1     ecut=    80.00 Ry     beta= 0.70
     Davidson diagonalization with overlap
     ethr =  1.00E-02,  avg # of iterations =  4.2

     total cpu time spent up to now is        4.0 secs

     total energy              =     -26.12497140 Ry
     estimated scf accuracy    <       0.14502693 Ry

     iteration #  2     ecut=    80.00 Ry     beta= 0.70
     Davidson diagonalization with overlap
     ethr =  1.61E-03,  avg # of iterations =  2.6

     total cpu time spent up to now is        5.7 secs

     total energy              =     -26.16011235 Ry
     estimated scf accuracy    <       0.01105479 Ry

     iteration #  3     ecut=    80.00 Ry     beta= 0.70
     Davidson diagonalization with overlap
     ethr =  1.23E-04,  avg # of iterations =  4.0

     total cpu time spent up to now is        7.6 secs

     total energy              =     -26.16185966 Ry
     estimated scf accuracy    <       0.00014733 Ry

     iteration #  4     ecut=    80.00 Ry     beta= 0.70
     Davidson diagonalization with overlap
     c_bands:  1 eigenvalues not converged
     c_bands:  1 eigenvalues not converged
     ethr =  1.64E-06,  avg # of iterations =  7.0

     total cpu time spent up to now is       10.2 secs

     total energy              =     -26.16190135 Ry
     estimated scf accuracy    <       0.00001739 Ry

     iteration #  5     ecut=    80.00 Ry     beta= 0.70
     Davidson diagonalization with overlap
     ethr =  1.93E-07,  avg # of iterations =  2.0

     total cpu time spent up to now is       12.1 secs

     End of self-consistent calculation

          k = 0.0000 0.0000 0.0000 (  2377 PWs)   bands (ev):

   -40.1778  -6.0338   2.9676   5.8791   5.8791   9.9222  11.8993  11.8993
    14.1356

          k = 0.0000 0.0000 0.1095 (  2353 PWs)   bands (ev):

   -40.1775  -5.9613   2.4156   5.9101   5.9101  10.8491  12.0122  12.0122
    14.1218

          k = 0.0000 0.0000 0.2189 (  2365 PWs)   bands (ev):

   -40.1769  -5.7702   1.3494   5.9867   5.9867  12.3167  12.3167  13.0283
    14.0881

          k = 0.0000 0.0000 0.3284 (  2359 PWs)   bands (ev):

   -40.1763  -5.5499   0.4645   6.0658   6.0658  12.6857  12.6857  14.0533
    15.4496

          k = 0.0000 0.0000-0.4378 (  2358 PWs)   bands (ev):

   -40.1760  -5.4471   0.1240   6.0993   6.0993  12.8671  12.8671  14.0387
    15.4358

          k = 0.0000 0.1443 0.0000 (  2383 PWs)   bands (ev):

   -40.1759  -5.7946   3.2586   4.7053   5.3058   9.8632  12.2456  12.9821
    14.7315

          k = 0.0000 0.1443 0.1095 (  2379 PWs)   bands (ev):

   -40.1756  -5.7209   2.6853   4.7583   5.3452  10.7356  12.3793  13.0832
    14.0693

          k = 0.0000 0.1443 0.2189 (  2368 PWs)   bands (ev):

   -40.1750  -5.5266   1.5949   4.8811   5.4430  12.1220  13.2759  13.3627
    13.4892

          k = 0.0000 0.1443 0.3284 (  2368 PWs)   bands (ev):

   -40.1744  -5.3020   0.6967   5.0085   5.5449  12.5265  12.8967  13.7231
    15.7701

          k = 0.0000 0.1443-0.4378 (  2358 PWs)   bands (ev):

   -40.1741  -5.1971   0.3515   5.0634   5.5884  12.6535  12.7069  13.9166
    16.0506

          k = 0.0000 0.2887 0.0000 (  2380 PWs)   bands (ev):

   -40.1713  -5.0809   2.3805   4.1163   4.3185  10.0046  12.2360  12.7583
    15.3768

          k = 0.0000 0.2887 0.1095 (  2373 PWs)   bands (ev):

   -40.1711  -5.0037   2.4185   3.5266   4.3668  10.7889  11.9607  12.6795
    15.4255

          k = 0.0000 0.2887 0.2189 (  2357 PWs)   bands (ev):

   -40.1705  -4.7997   2.2004   2.7554   4.4880  11.0320  11.7949  13.8327
    15.5394

          k = 0.0000 0.2887 0.3284 (  2352 PWs)   bands (ev):

   -40.1699  -4.5628   1.3665   2.8233   4.6161  10.2816  12.0351  15.6204
    16.6823

          k = 0.0000 0.2887-0.4378 (  2350 PWs)   bands (ev):

   -40.1697  -4.4516   1.0192   2.8863   4.6713   9.9971  12.0868  15.6104
    16.3870

          k = 0.0000 0.4330 0.0000 (  2362 PWs)   bands (ev):

   -40.1668  -3.9186   0.0325   3.5954   5.4570  10.4075  10.4137  11.8532
    15.7064

          k = 0.0000 0.4330 0.1095 (  2364 PWs)   bands (ev):

   -40.1666  -3.8345   0.0921   3.6481   4.7602   9.6907  11.0049  12.5441
    16.3024

          k = 0.0000 0.4330 0.2189 (  2366 PWs)   bands (ev):

   -40.1660  -3.6117   0.2527   3.4999   3.7806   8.6085  11.4966  14.3857
    15.9543

          k = 0.0000 0.4330 0.3284 (  2355 PWs)   bands (ev):

   -40.1654  -3.3516   0.4567   2.4534   3.9215   7.8030  11.6071  15.0183
    16.6003

          k = 0.0000 0.4330-0.4378 (  2350 PWs)   bands (ev):

   -40.1652  -3.2287   0.5726   2.0235   3.9827   7.5079  11.6211  14.6730
    16.9459

          k = 0.0000-0.5774 0.0000 (  2370 PWs)   bands (ev):

   -40.1649  -2.7554  -1.5509   3.3402   6.5755   8.8961  10.8235  11.4497
    15.4194

          k = 0.0000-0.5774 0.1095 (  2362 PWs)   bands (ev):

   -40.1647  -2.6465  -1.5112   3.3941   5.7585   8.2807  11.1272  12.5430
    15.9879

          k = 0.0000-0.5774 0.2189 (  2368 PWs)   bands (ev):

   -40.1641  -2.3491  -1.4110   3.5298   4.3401   7.2917  11.3895  14.7608
    15.7364

          k = 0.0000-0.5774 0.3284 (  2376 PWs)   bands (ev):

   -40.1636  -1.9788  -1.3036   3.1839   3.6745   6.5564  11.4511  14.7211
    16.9871

          k = 0.0000-0.5774-0.4378 (  2372 PWs)   bands (ev):

   -40.1633  -1.7909  -1.2567   2.7223   3.7374   6.2895  11.4533  14.3572
    16.9727

          k = 0.1250 0.2165 0.0000 (  2385 PWs)   bands (ev):

   -40.1727  -5.3179   3.2989   3.8338   4.1717  10.0873  13.1560  13.4232
    13.4842

          k = 0.1250 0.2165 0.1095 (  2367 PWs)   bands (ev):

   -40.1724  -5.2419   3.1962   3.3624   4.2622  10.9663  12.7865  13.2256
    13.6837

          k = 0.1250 0.2165 0.2189 (  2362 PWs)   bands (ev):

   -40.1718  -5.0412   2.0703   3.5252   4.3746  11.8240  12.5249  13.8287
    13.9753

          k = 0.1250 0.2165 0.3284 (  2356 PWs)   bands (ev):

   -40.1712  -4.8084   1.1536   3.7042   4.4793  11.0652  12.9398  14.3301
    15.4432

          k = 0.1250 0.2165-0.4378 (  2356 PWs)   bands (ev):

   -40.1710  -4.6993   0.8017   3.7842   4.5234  10.7792  13.0013  14.5129
    15.3681

          k = 0.1250 0.3608 0.0000 (  2351 PWs)   bands (ev):

   -40.1681  -4.3755   1.2153   3.0651   4.9460  10.5919  11.4317  12.9454
    15.2284

          k = 0.1250 0.3608 0.1095 (  2364 PWs)   bands (ev):

   -40.1679  -4.2948   1.2815   3.0853   4.3251  10.7209  11.4641  13.1870
    15.5001

          k = 0.1250 0.3608 0.2189 (  2363 PWs)   bands (ev):

   -40.1673  -4.0812   1.4510   2.9035   3.4323   9.5645  12.6750  14.0581
    15.4426

          k = 0.1250 0.3608 0.3284 (  2362 PWs)   bands (ev):

   -40.1668  -3.8323   1.6332   2.0950   3.4044   8.6670  12.9068  14.3463
    16.1040

          k = 0.1250 0.3608-0.4378 (  2352 PWs)   bands (ev):

   -40.1665  -3.7149   1.6688   1.7891   3.4431   8.3290  12.9357  14.1396
    16.2382

          k = 0.1250 0.5052 0.0000 (  2356 PWs)   bands (ev):

   -40.1649  -3.0470  -0.8600   2.5307   6.3911   9.3860  11.3050  12.2289
    15.1907

          k = 0.1250 0.5052 0.1095 (  2363 PWs)   bands (ev):

   -40.1647  -2.9546  -0.7992   2.5754   5.6300   8.7143  12.0639  12.8238
    15.2661

          k = 0.1250 0.5052 0.2189 (  2362 PWs)   bands (ev):

   -40.1641  -2.7089  -0.6367   2.6941   4.2833   7.5817  12.5557  14.3321
    14.9426

          k = 0.1250 0.5052 0.3284 (  2360 PWs)   bands (ev):

   -40.1636  -2.4206  -0.4384   2.8298   3.1844   6.6977  12.6543  13.8007
    17.0963

          k = 0.1250 0.5052-0.4378 (  2364 PWs)   bands (ev):

   -40.1633  -2.2840  -0.3367   2.7187   2.9224   6.3620  12.6731  13.5550
    17.9958

          k = 0.2500 0.4330 0.0000 (  2352 PWs)   bands (ev):

   -40.1649  -3.2322   0.0521   1.4632   6.2440   9.9172  11.4262  13.7473
    15.3915

          k = 0.2500 0.4330 0.1095 (  2357 PWs)   bands (ev):

   -40.1647  -3.1453   0.1413   1.4821   5.5268   9.1497  12.3806  14.4918
    14.5379

          k = 0.2500 0.4330 0.2189 (  2371 PWs)   bands (ev):

   -40.1641  -2.9146   0.3780   1.5379   4.2385   7.8511  13.5737  14.4899
    15.4660

          k = 0.2500 0.4330 0.3284 (  2356 PWs)   bands (ev):

   -40.1636  -2.6441   0.6551   1.6304   3.1660   6.8293  13.1816  14.8652
    15.9579

          k = 0.2500 0.4330-0.4378 (  2366 PWs)   bands (ev):

   -40.1634  -2.5159   0.7865   1.7063   2.7151   6.4384  13.0038  14.8540
    16.1190

          k = 0.2500 0.5774 0.0000 (  2374 PWs)   bands (ev):

   -40.1636  -2.0432  -1.2141   0.9333   7.4378   8.6623  12.1051  12.9845
    14.1665

          k = 0.2500 0.5774 0.1095 (  2359 PWs)   bands (ev):

   -40.1634  -1.9392  -1.1383   0.9547   6.6262   7.9107  13.1629  13.6857
    13.9907

          k = 0.2500 0.5774 0.2189 (  2364 PWs)   bands (ev):

   -40.1628  -1.6572  -0.9432   1.0191   5.2299   6.6105  13.2442  14.9223
    15.2443

          k = 0.2500 0.5774 0.3284 (  2367 PWs)   bands (ev):

   -40.1623  -1.3120  -0.7296   1.1142   4.1047   5.5706  12.7979  15.1627
    17.2801

          k = 0.2500 0.5774-0.4378 (  2368 PWs)   bands (ev):

   -40.1620  -1.1402  -0.6353   1.1692   3.6615   5.1667  12.6360  15.1831
    18.0678

     the Fermi energy is     4.5852 ev

!    total energy              =     -26.16190378 Ry
     estimated scf accuracy    <       0.00000032 Ry

     The total energy is the sum of the following terms:
     one-electron contribution =      -3.47637898 Ry
     hartree contribution      =       3.86719569 Ry
     xc contribution           =      -8.10906825 Ry
     ewald contribution        =     -18.44365224 Ry

     convergence has been achieved in   5 iterations

     Forces acting on atoms (cartesian axes, Ry/au):

     atom    1 type  1   force =     0.00000000    0.00000000    0.00000000
     atom    2 type  2   force =     0.00000000   -0.00000000    0.00000000
     atom    3 type  2   force =     0.00000000    0.00000000    0.00000000

     Total force =     0.000000     Total SCF correction =     0.000000


     Computing stress (Cartesian axis) and pressure

          total   stress  (Ry/bohr**3)                   (kbar)     P=     -106.12
  -0.00097020   0.00000000   0.00000000         -142.72        0.00        0.00
   0.00000000  -0.00097020   0.00000000            0.00     -142.72        0.00
   0.00000000   0.00000000  -0.00022380            0.00        0.00      -32.92


     BFGS Geometry Optimization
     Energy error            =      0.0E+00 Ry
     Gradient error          =      3.2E-30 Ry/Bohr
     Cell gradient error     =      1.4E+02 kbar

     number of scf cycles    =   1
     number of bfgs steps    =   0

     enthalpy           new  =     -26.1619037776 Ry

     new trust radius        =       0.0678396579 bohr
     new conv_thr            =       0.0000010000 Ry

     new unit-cell volume =    185.15875 a.u.^3 (    27.43770 Ang^3 )
     density =      1.72846 g/cm^3

CELL_PARAMETERS (alat=  5.82600000)
   0.975745096   0.000000000   0.000000000
  -0.487872548   0.845020041   0.000000000
   0.000000000   0.000000000   1.135610537

ATOMIC_POSITIONS (crystal)
Li               0.0000000000        0.0000000000        0.0000000000
B                0.3333333333        0.6666666667        0.5000000000
B                0.6666666667        0.3333333333        0.5000000000



     Writing config-only to output data dir ./tmp/LiB2.save/ :
     XML data file
     NEW-OLD atomic charge density approx. for the potential

     total cpu time spent up to now is       13.8 secs

     Self-consistent Calculation

     iteration #  1     ecut=    80.00 Ry     beta= 0.70
     Davidson diagonalization with overlap
     c_bands:  1 eigenvalues not converged
     ethr =  1.00E-06,  avg # of iterations =  7.7

     total cpu time spent up to now is       17.1 secs

     total energy              =     -26.16833927 Ry
     estimated scf accuracy    <       0.00040367 Ry

     iteration #  2     ecut=    80.00 Ry     beta= 0.70
     Davidson diagonalization with overlap
     ethr =  4.49E-06,  avg # of iterations =  2.3

     total cpu time spent up to now is       19.1 secs

     total energy              =     -26.16843176 Ry
     estimated scf accuracy    <       0.00003565 Ry

     iteration #  3     ecut=    80.00 Ry     beta= 0.70
     Davidson diagonalization with overlap
     ethr =  3.96E-07,  avg # of iterations =  1.6

     total cpu time spent up to now is       20.6 secs

     End of self-consistent calculation

          k = 0.0000 0.0000 0.0000 (  2377 PWs)   bands (ev):

   -39.7036  -5.9028   3.0935   6.4462   6.4462  10.3100  12.7456  12.7456
    15.6136

          k = 0.0000-0.0000 0.1101 (  2353 PWs)   bands (ev):

   -39.7033  -5.8331   2.5604   6.4759   6.4759  11.2284  12.8582  12.8582
    15.5170

          k = 0.0000-0.0000 0.2201 (  2365 PWs)   bands (ev):

   -39.7026  -5.6499   1.5213   6.5491   6.5491  13.1613  13.1613  13.4144
    15.3273

          k = 0.0000-0.0000 0.3302 (  2359 PWs)   bands (ev):

   -39.7019  -5.4398   0.6559   6.6244   6.6244  13.5267  13.5267  15.1719
    16.1010

          k = 0.0000 0.0000-0.4403 (  2358 PWs)   bands (ev):

   -39.7016  -5.3423   0.3233   6.6563   6.6563  13.7053  13.7053  15.1139
    17.0251

          k = 0.0000 0.1479 0.0000 (  2383 PWs)   bands (ev):

   -39.7011  -5.6538   3.4021   5.2428   5.8360  10.2603  13.1468  13.8942
    15.7242

          k = 0.0000 0.1479 0.1101 (  2379 PWs)   bands (ev):

   -39.7008  -5.5828   2.8461   5.2950   5.8741  11.1452  13.2573  13.9953
    15.1161

          k = 0.0000 0.1479 0.2201 (  2368 PWs)   bands (ev):

   -39.7001  -5.3959   1.7796   5.4149   5.9684  12.8430  13.9054  14.2745
    14.4079

          k = 0.0000 0.1479 0.3302 (  2368 PWs)   bands (ev):

   -39.6994  -5.1811   0.8988   5.5377   6.0664  13.3950  13.8439  14.6344
    16.2294

          k = 0.0000 0.1479-0.4403 (  2358 PWs)   bands (ev):

   -39.6991  -5.0813   0.5608   5.5905   6.1081  13.5247  13.6457  14.8273
    17.5994

          k = 0.0000 0.2959 0.0000 (  2380 PWs)   bands (ev):

   -39.6950  -4.9099   2.8315   4.3127   4.7890  10.4489  13.1822  13.5528
    16.4153

          k = 0.0000 0.2959 0.1101 (  2373 PWs)   bands (ev):

   -39.6948  -4.8350   2.8533   3.7528   4.8359  11.2909  12.7506  13.5432
    16.4568

          k = 0.0000 0.2959 0.2201 (  2357 PWs)   bands (ev):

   -39.6941  -4.6375   2.4496   3.1815   4.9532  11.7872  12.6048  14.3948
    16.5415

          k = 0.0000 0.2959 0.3302 (  2352 PWs)   bands (ev):

   -39.6934  -4.4093   1.6003   3.2719   5.0768  11.0173  12.9602  16.5470
    16.5870

          k = 0.0000 0.2959-0.4403 (  2350 PWs)   bands (ev):

   -39.6931  -4.3026   1.2581   3.3323   5.1300  10.7299  13.0173  16.4786
    17.4655

          k = 0.0000 0.4438 0.0000 (  2362 PWs)   bands (ev):

   -39.6890  -3.6932   0.3803   4.0240   5.7416  10.9748  10.9963  12.6493
    16.5064

          k = 0.0000 0.4438 0.1101 (  2364 PWs)   bands (ev):

   -39.6887  -3.6110   0.4378   4.0751   5.0513  10.2785  11.7051  13.2323
    17.1060

          k = 0.0000 0.4438 0.2201 (  2366 PWs)   bands (ev):

   -39.6881  -3.3937   0.5938   3.7947   4.2034   9.1874  12.4220  14.8994
    16.7932

          k = 0.0000 0.4438 0.3302 (  2355 PWs)   bands (ev):

   -39.6874  -3.1414   0.7980   2.7443   4.3394   8.3838  12.5660  15.8410
    17.1857

          k = 0.0000 0.4438-0.4403 (  2350 PWs)   bands (ev):

   -39.6872  -3.0229   0.9195   2.3073   4.3983   8.0915  12.5793  15.4926
    17.9510

          k = 0.0000-0.5917 0.0000 (  2370 PWs)   bands (ev):

   -39.6865  -2.4380  -1.3132   3.7541   6.9490   9.3543  11.6977  11.8835
    16.2197

          k = 0.0000-0.5917 0.1101 (  2362 PWs)   bands (ev):

   -39.6862  -2.3272  -1.2785   3.8064   6.1199   8.7584  12.0378  12.9981
    16.7367

          k = 0.0000-0.5917 0.2201 (  2368 PWs)   bands (ev):

   -39.6856  -2.0240  -1.1914   3.9379   4.6811   7.7872  12.3508  15.2662
    16.5486

          k = 0.0000-0.5917 0.3302 (  2376 PWs)   bands (ev):

   -39.6850  -1.6452  -1.0988   3.5067   4.0775   7.0681  12.4196  15.5261
    18.0083

          k = 0.0000-0.5917-0.4403 (  2372 PWs)   bands (ev):

   -39.6847  -1.4520  -1.0587   3.0367   4.1381   6.8083  12.4186  15.1606
    18.0219

          k = 0.1281 0.2219 0.0000 (  2385 PWs)   bands (ev):

   -39.6968  -5.1572   3.8049   4.0125   4.6253  10.4926  14.0877  14.2900
    14.5949

          k = 0.1281 0.2219 0.1101 (  2367 PWs)   bands (ev):

   -39.6965  -5.0836   3.3916   3.8671   4.7148  11.3799  13.6467  14.1348
    14.7716

          k = 0.1281 0.2219 0.2201 (  2362 PWs)   bands (ev):

   -39.6958  -4.8896   2.2802   4.0264   4.8307  12.6398  13.1634  14.5055
    15.0748

          k = 0.1281 0.2219 0.3302 (  2356 PWs)   bands (ev):

   -39.6952  -4.6659   1.3769   4.2010   4.9321  11.8596  13.8149  15.4399
    16.0799

          k = 0.1281 0.2219-0.4403 (  2356 PWs)   bands (ev):

   -39.6949  -4.5614   1.0309   4.2786   4.9741  11.5678  13.8879  15.6291
    16.2019

          k = 0.1281 0.3698 0.0000 (  2351 PWs)   bands (ev):

   -39.6907  -4.1731   1.6323   3.4666   5.1954  11.0295  12.1237  13.9279
    16.1631

          k = 0.1281 0.3698 0.1101 (  2364 PWs)   bands (ev):

   -39.6905  -4.0945   1.6952   3.4781   4.5950  11.3848  11.9415  14.1481
    16.5437

          k = 0.1281 0.3698 0.2201 (  2363 PWs)   bands (ev):

   -39.6898  -3.8867   1.8540   3.2041   3.8096  10.2088  13.4889  14.6916
    16.2551

          k = 0.1281 0.3698 0.3302 (  2362 PWs)   bands (ev):

   -39.6892  -3.6455   2.0032   2.4030   3.8057   9.3004  13.8664  15.1079
    17.2424

          k = 0.1281 0.3698-0.4403 (  2352 PWs)   bands (ev):

   -39.6889  -3.5324   1.9374   2.1984   3.8435   8.9598  13.8965  14.9377
    17.4470

          k = 0.1281 0.5177 0.0000 (  2356 PWs)   bands (ev):

   -39.6865  -2.7722  -0.5527   2.9113   6.7430   9.9043  11.7904  13.0563
    15.9962

          k = 0.1281 0.5177 0.1101 (  2363 PWs)   bands (ev):

   -39.6862  -2.6812  -0.4940   2.9550   5.9781   9.2310  12.7211  13.5646
    15.9229

          k = 0.1281 0.5177 0.2201 (  2362 PWs)   bands (ev):

   -39.6856  -2.4399  -0.3359   3.0716   4.6211   8.0976  13.5317  14.9630
    15.5723

          k = 0.1281 0.5177 0.3302 (  2360 PWs)   bands (ev):

   -39.6850  -2.1594  -0.1381   3.2021   3.5142   7.2156  13.6461  14.5682
    17.6974

          k = 0.1281 0.5177-0.4403 (  2364 PWs)   bands (ev):

   -39.6847  -2.0278  -0.0337   3.0352   3.3013   6.8815  13.6624  14.3365
    19.0334

          k = 0.2562 0.4438 0.0000 (  2352 PWs)   bands (ev):

   -39.6865  -2.9748   0.4606   1.7522   6.5808  10.5094  11.8723  14.4339
    15.4666

          k = 0.2562 0.4438 0.1101 (  2357 PWs)   bands (ev):

   -39.6862  -2.8894   0.5500   1.7680   5.8652   9.7174  12.8375  15.1669
    15.2896

          k = 0.2562 0.4438 0.2201 (  2371 PWs)   bands (ev):

   -39.6856  -2.6634   0.7872   1.8180   4.5739   8.3912  14.1825  15.2028
    16.5494

          k = 0.2562 0.4438 0.3302 (  2356 PWs)   bands (ev):

   -39.6850  -2.3999   1.0643   1.9110   3.4929   7.3543  13.9128  15.8227
    17.1979

          k = 0.2562 0.4438-0.4403 (  2366 PWs)   bands (ev):

   -39.6847  -2.2757   1.1954   1.9928   3.0338   6.9588  13.7619  15.8162
    17.3884

          k = 0.2562 0.5917 0.0000 (  2374 PWs)   bands (ev):

   -39.6847  -1.7021  -0.8943   1.2023   7.8655   9.1578  12.5747  13.5645
    14.6857

          k = 0.2562 0.5917 0.1101 (  2359 PWs)   bands (ev):

   -39.6844  -1.5967  -0.8227   1.2231   7.0381   8.3936  13.6628  14.2523
    14.6543

          k = 0.2562 0.5917 0.2201 (  2364 PWs)   bands (ev):

   -39.6838  -1.3104  -0.6408   1.2895   5.6194   7.0761  13.8953  15.8217
    15.8759

          k = 0.2562 0.5917 0.3302 (  2367 PWs)   bands (ev):

   -39.6832  -0.9593  -0.4466   1.3930   4.4772   6.0246  13.5203  16.2036
    18.0204

          k = 0.2562 0.5917-0.4403 (  2368 PWs)   bands (ev):

   -39.6830  -0.7841  -0.3629   1.4542   4.0270   5.6165  13.3838  16.2159
    19.1814

     the Fermi energy is     4.9989 ev

!    total energy              =     -26.16843778 Ry
     estimated scf accuracy    <       0.00000038 Ry

     The total energy is the sum of the following terms:
     one-electron contribution =      -3.08085152 Ry
     hartree contribution      =       3.83139472 Ry
     xc contribution           =      -8.18333363 Ry
     ewald contribution        =     -18.73564735 Ry

     convergence has been achieved in   3 iterations

     Forces acting on atoms (cartesian axes, Ry/au):

     atom    1 type  1   force =     0.00000000    0.00000000    0.00000000
     atom    2 type  2   force =     0.00000000   -0.00000000    0.00000000
     atom    3 type  2   force =     0.00000000    0.00000000   -0.00000000

     Total force =     0.000000     Total SCF correction =     0.000000


     Computing stress (Cartesian axis) and pressure

          total   stress  (Ry/bohr**3)                   (kbar)     P=      -41.16
  -0.00035924  -0.00000000   0.00000000          -52.85       -0.00        0.00
  -0.00000000  -0.00035924   0.00000000           -0.00      -52.85        0.00
   0.00000000  -0.00000000  -0.00012086            0.00       -0.00      -17.78

     Energy error            =      6.5E-03 Ry
     Gradient error          =      3.3E-30 Ry/Bohr
     Cell gradient error     =      5.3E+01 kbar

     number of scf cycles    =   2
     number of bfgs steps    =   1

     enthalpy           old  =     -26.1619037776 Ry
     enthalpy           new  =     -26.1684377800 Ry

     CASE: enthalpy          _new < enthalpy          _old

     new trust radius        =       0.0382734323 bohr
     new conv_thr            =       0.0000000100 Ry

     new unit-cell volume =    179.16807 a.u.^3 (    26.54997 Ang^3 )
     density =      1.78625 g/cm^3

CELL_PARAMETERS (alat=  5.82600000)
   0.962022645  -0.000000000   0.000000000
  -0.481011323   0.833136050  -0.000000000
   0.000000000   0.000000000   1.130441158

ATOMIC_POSITIONS (crystal)
Li               0.0000000000        0.0000000000        0.0000000000
B                0.3333333333        0.6666666667        0.5000000000
B                0.6666666667        0.3333333333        0.5000000000



     Writing config-only to output data dir ./tmp/LiB2.save/ :
     XML data file
     NEW-OLD atomic charge density approx. for the potential

     total cpu time spent up to now is       22.1 secs

     Self-consistent Calculation

     iteration #  1     ecut=    80.00 Ry     beta= 0.70
     Davidson diagonalization with overlap
     ethr =  1.00E-06,  avg # of iterations =  6.2

     total cpu time spent up to now is       25.0 secs

     total energy              =     -26.16926634 Ry
     estimated scf accuracy    <       0.00015589 Ry

     iteration #  2     ecut=    80.00 Ry     beta= 0.70
     Davidson diagonalization with overlap
     ethr =  1.73E-06,  avg # of iterations =  2.3

     total cpu time spent up to now is       26.7 secs

     total energy              =     -26.16930328 Ry
     estimated scf accuracy    <       0.00001439 Ry

     iteration #  3     ecut=    80.00 Ry     beta= 0.70
     Davidson diagonalization with overlap
     ethr =  1.60E-07,  avg # of iterations =  1.3

     total cpu time spent up to now is       28.2 secs

     total energy              =     -26.16930572 Ry
     estimated scf accuracy    <       0.00000014 Ry

     iteration #  4     ecut=    80.00 Ry     beta= 0.70
     Davidson diagonalization with overlap
     ethr =  1.57E-09,  avg # of iterations =  2.6

     total cpu time spent up to now is       30.3 secs

     total energy              =     -26.16930578 Ry
     estimated scf accuracy    <       0.00000001 Ry

     iteration #  5     ecut=    80.00 Ry     beta= 0.70
     Davidson diagonalization with overlap
     ethr =  1.19E-10,  avg # of iterations =  2.2

     total cpu time spent up to now is       32.1 secs

     End of self-consistent calculation

          k = 0.0000 0.0000 0.0000 (  2377 PWs)   bands (ev):

   -39.4095  -5.8150   3.1875   6.7950   6.7950  10.5769  13.2546  13.2546
    16.5009

          k = 0.0000 0.0000 0.1106 (  2353 PWs)   bands (ev):

   -39.4091  -5.7467   2.6638   6.8242   6.8242  11.4926  13.3675  13.3675
    16.3292

          k = 0.0000 0.0000 0.2212 (  2365 PWs)   bands (ev):

   -39.4083  -5.5675   1.6376   6.8961   6.8961  13.6709  13.6709  13.6874
    16.0474

          k = 0.0000 0.0000 0.3317 (  2359 PWs)   bands (ev):

   -39.4076  -5.3624   0.7811   6.9700   6.9700  14.0360  14.0360  15.8384
    16.4081

          k =-0.0000-0.0000-0.4423 (  2358 PWs)   bands (ev):

   -39.4072  -5.2675   0.4520   7.0013   7.0013  14.2140  14.2140  15.7632
    17.9906

          k = 0.0000 0.1500-0.0000 (  2383 PWs)   bands (ev):

   -39.4065  -5.5604   3.5066   5.5716   6.1619  10.5272  13.6932  14.4436
    16.3326

          k = 0.0000 0.1500 0.1106 (  2379 PWs)   bands (ev):

   -39.4062  -5.4907   2.9589   5.6239   6.1995  11.4160  13.7960  14.5451
    15.7389

          k = 0.0000 0.1500 0.2212 (  2368 PWs)   bands (ev):

   -39.4054  -5.3075   1.9034   5.7430   6.2925  13.2387  14.3296  14.8253
    14.9943

          k = 0.0000 0.1500 0.3317 (  2368 PWs)   bands (ev):

   -39.4046  -5.0974   1.0301   5.8644   6.3891  13.9171  14.4153  15.1863
    16.5497

          k = 0.0000 0.1500-0.4423 (  2358 PWs)   bands (ev):

   -39.4043  -5.0000   0.6952   5.9164   6.4303  14.0520  14.2115  15.3799
    18.5420

          k = 0.0000 0.3001-0.0000 (  2380 PWs)   bands (ev):

   -39.3994  -4.7992   3.1070   4.4486   5.0782  10.7334  13.7669  14.0422
    17.0413

          k = 0.0000 0.3001 0.1106 (  2373 PWs)   bands (ev):

   -39.3991  -4.7254   3.1150   3.9092   5.1246  11.5944  13.2393  14.0936
    17.0785

          k = 0.0000 0.3001 0.2212 (  2357 PWs)   bands (ev):

   -39.3983  -4.5309   2.6040   3.4518   5.2405  12.2434  13.0714  14.7991
    17.1446

          k = 0.0000 0.3001 0.3317 (  2352 PWs)   bands (ev):

   -39.3976  -4.3066   1.7496   3.5498   5.3625  11.4631  13.5178  16.9273
    17.1045

          k = 0.0000 0.3001-0.4423 (  2350 PWs)   bands (ev):

   -39.3973  -4.2020   1.4093   3.6092   5.4150  11.1733  13.5803  17.0086
    18.1189

          k = 0.0000 0.4501-0.0000 (  2362 PWs)   bands (ev):

   -39.3922  -3.5513   0.5946   4.2875   5.9297  11.3051  11.3640  13.1630
    17.0160

          k = 0.0000 0.4501 0.1106 (  2364 PWs)   bands (ev):

   -39.3920  -3.4698   0.6511   4.3381   5.2417  10.6411  12.1010  13.7075
    17.6091

          k = 0.0000 0.4501 0.2212 (  2366 PWs)   bands (ev):

   -39.3913  -3.2549   0.8056   3.9840   4.4649   9.5435  12.9742  15.2539
    17.3087

          k = 0.0000 0.4501 0.3317 (  2355 PWs)   bands (ev):

   -39.3906  -3.0060   1.0116   2.9275   4.5992   8.7391  13.1473  16.3448
    17.5558

          k = 0.0000 0.4501-0.4423 (  2350 PWs)   bands (ev):

   -39.3903  -2.8895   1.1382   2.4839   4.6573   8.4473  13.1612  15.9933
    18.5457

          k =-0.0000-0.6001 0.0000 (  2370 PWs)   bands (ev):

   -39.3893  -2.2403  -1.1656   4.0088   7.1902   9.6446  12.1745  12.2179
    16.7396

          k =-0.0000-0.6001 0.1106 (  2362 PWs)   bands (ev):

   -39.3890  -2.1278  -1.1337   4.0605   6.3519   9.0576  12.5838  13.3035
    17.2187

          k =-0.0000-0.6001 0.2212 (  2368 PWs)   bands (ev):

   -39.3883  -1.8196  -1.0538   4.1905   4.8969   8.0948  12.9327  15.6044
    17.0499

          k =-0.0000-0.6001 0.3317 (  2376 PWs)   bands (ev):

   -39.3876  -1.4332  -0.9692   3.7074   4.3283   7.3833  13.0080  16.0194
    18.0555

          k =-0.0000-0.6001-0.4423 (  2372 PWs)   bands (ev):

   -39.3874  -1.2352  -0.9327   3.2301   4.3880   7.1269  13.0057  15.6515
    18.6679

          k = 0.1299 0.2251-0.0000 (  2385 PWs)   bands (ev):

   -39.4015  -5.0523   4.1140   4.1379   4.9038  10.7641  14.6595  14.8232
    15.2556

          k = 0.1299 0.2251 0.1106 (  2367 PWs)   bands (ev):

   -39.4012  -4.9799   3.5241   4.1759   4.9942  11.6542  14.1686  14.6973
    15.4241

          k = 0.1299 0.2251 0.2212 (  2362 PWs)   bands (ev):

   -39.4004  -4.7892   2.4186   4.3344   5.1127  13.1351  13.5239  14.9812
    15.7315

          k = 0.1299 0.2251 0.3317 (  2356 PWs)   bands (ev):

   -39.3997  -4.5695   1.5203   4.5076   5.2132  12.3402  14.3435  16.1027
    16.4611

          k = 0.1299 0.2251-0.4423 (  2356 PWs)   bands (ev):

   -39.3994  -4.4673   1.1767   4.5846   5.2543  12.0441  14.4274  16.2958
    16.7056

          k = 0.1299 0.3751-0.0000 (  2351 PWs)   bands (ev):

   -39.3943  -4.0445   1.8870   3.7146   5.3628  11.3162  12.5529  14.5225
    16.7141

          k = 0.1299 0.3751 0.1106 (  2364 PWs)   bands (ev):

   -39.3940  -3.9667   1.9482   3.7204   4.7741  11.7908  12.2484  14.7437
    17.1532

          k = 0.1299 0.3751 0.2212 (  2363 PWs)   bands (ev):

   -39.3933  -3.7614   2.1004   3.3931   4.0501  10.6037  13.9370  15.1453
    16.7623

          k = 0.1299 0.3751 0.3317 (  2362 PWs)   bands (ev):

   -39.3926  -3.5237   2.2206   2.6090   4.0566   9.6858  14.4446  15.5714
    17.6710

          k = 0.1299 0.3751-0.4423 (  2352 PWs)   bands (ev):

   -39.3923  -3.4123   2.1054   2.4530   4.0944   9.3425  14.4779  15.4261
    18.1790

          k = 0.1299 0.5251-0.0000 (  2356 PWs)   bands (ev):

   -39.3893  -2.6016  -0.3628   3.1468   6.9712  10.2304  12.0965  13.5581
    16.5215

          k = 0.1299 0.5251 0.1106 (  2363 PWs)   bands (ev):

   -39.3890  -2.5110  -0.3050   3.1903   6.2023   9.5541  13.0804  14.0707
    16.3430

          k = 0.1299 0.5251 0.2212 (  2362 PWs)   bands (ev):

   -39.3883  -2.2716  -0.1480   3.3066   4.8354   8.4172  14.1148  15.3524
    15.9930

          k = 0.1299 0.5251 0.3317 (  2360 PWs)   bands (ev):

   -39.3877  -1.9948   0.0519   3.4339   3.7211   7.5336  14.2462  15.0409
    18.0916

          k = 0.1299 0.5251-0.4423 (  2364 PWs)   bands (ev):

   -39.3874  -1.8657   0.1594   3.2304   3.5392   7.1990  14.2622  14.8171
    19.4876

          k = 0.2599 0.4501-0.0000 (  2352 PWs)   bands (ev):

   -39.3893  -2.8142   0.7117   1.9322   6.8000  10.8801  12.1683  14.8484
    15.8307

          k = 0.2599 0.4501 0.1106 (  2357 PWs)   bands (ev):

   -39.3890  -2.7294   0.8017   1.9464   6.0836  10.0712  13.1397  15.5638
    15.7574

          k = 0.2599 0.4501 0.2212 (  2371 PWs)   bands (ev):

   -39.3883  -2.5053   1.0405   1.9939   4.7870   8.7246  14.5584  15.6351
    17.1712

          k = 0.2599 0.4501 0.3317 (  2356 PWs)   bands (ev):

   -39.3877  -2.2448   1.3196   2.0887   3.6970   7.6751  14.3647  16.4010
    17.9408

          k = 0.2599 0.4501-0.4423 (  2366 PWs)   bands (ev):

   -39.3874  -2.1224   1.4515   2.1753   3.2307   7.2753  14.2303  16.3999
    18.1557

          k = 0.2599 0.6001-0.0000 (  2374 PWs)   bands (ev):

   -39.3872  -1.4907  -0.6996   1.3727   8.1388   9.4708  12.8847  13.9277
    15.0221

          k = 0.2599 0.6001 0.1106 (  2359 PWs)   bands (ev):

   -39.3869  -1.3838  -0.6304   1.3939   7.3000   8.6972  13.9920  14.6059
    15.0649

          k = 0.2599 0.6001 0.2212 (  2364 PWs)   bands (ev):

   -39.3863  -1.0934  -0.4565   1.4633   5.8639   7.3657  14.3020  16.1957
    16.4313

          k = 0.2599 0.6001 0.3317 (  2367 PWs)   bands (ev):

   -39.3856  -0.7364  -0.2738   1.5742   4.7074   6.3035  13.9688  16.8276
    18.4708

          k = 0.2599 0.6001-0.4423 (  2368 PWs)   bands (ev):

   -39.3853  -0.5578  -0.1964   1.6403   4.2510   5.8913  13.8474  16.8354
    19.8633

     the Fermi energy is     5.2570 ev

!    total energy              =     -26.16930578 Ry
     estimated scf accuracy    <          2.8E-10 Ry

     The total energy is the sum of the following terms:
     one-electron contribution =      -2.83074379 Ry
     hartree contribution      =       3.80685920 Ry
     xc contribution           =      -8.22818931 Ry
     ewald contribution        =     -18.91723189 Ry

     convergence has been achieved in   5 iterations

     Forces acting on atoms (cartesian axes, Ry/au):

     atom    1 type  1   force =     0.00000000   -0.00000000    0.00000000
     atom    2 type  2   force =     0.00000000    0.00000000   -0.00000000
     atom    3 type  2   force =     0.00000000    0.00000000   -0.00000000

     Total force =     0.000000     Total SCF correction =     0.000000


     Computing stress (Cartesian axis) and pressure

          total   stress  (Ry/bohr**3)                   (kbar)     P=        4.14
   0.00005955  -0.00000000  -0.00000000            8.76       -0.00       -0.00
  -0.00000000   0.00005955   0.00000000           -0.00        8.76        0.00
  -0.00000000   0.00000000  -0.00003469           -0.00        0.00       -5.10

     Energy error            =      8.7E-04 Ry
     Gradient error          =      1.5E-30 Ry/Bohr
     Cell gradient error     =      8.8E+00 kbar

     number of scf cycles    =   3
     number of bfgs steps    =   2

     enthalpy           old  =     -26.1684377800 Ry
     enthalpy           new  =     -26.1693057814 Ry

     CASE: enthalpy          _new < enthalpy          _old

     new trust radius        =       0.0049920534 bohr
     new conv_thr            =       0.0000000100 Ry

     new unit-cell volume =    179.74243 a.u.^3 (    26.63508 Ang^3 )
     density =      1.78055 g/cm^3

CELL_PARAMETERS (alat=  5.82600000)
   0.963816570  -0.000000000  -0.000000000
  -0.481908285   0.834689634   0.000000000
  -0.000000000   0.000000000   1.129847304

ATOMIC_POSITIONS (crystal)
Li               0.0000000000       -0.0000000000        0.0000000000
B                0.3333333333        0.6666666667        0.5000000000
B                0.6666666667        0.3333333333        0.5000000000



     Writing config-only to output data dir ./tmp/LiB2.save/ :
     XML data file
     NEW-OLD atomic charge density approx. for the potential

     total cpu time spent up to now is       33.6 secs

     Self-consistent Calculation

     iteration #  1     ecut=    80.00 Ry     beta= 0.70
     Davidson diagonalization with overlap
     ethr =  1.00E-06,  avg # of iterations =  2.1

     Threshold (ethr) on eigenvalues was too large:
     Diagonalizing with lowered threshold

     Davidson diagonalization with overlap
     ethr =  2.21E-08,  avg # of iterations =  2.0

     total cpu time spent up to now is       36.8 secs

     total energy              =     -26.16932987 Ry
     estimated scf accuracy    <       0.00000202 Ry

     iteration #  2     ecut=    80.00 Ry     beta= 0.70
     Davidson diagonalization with overlap
     ethr =  2.25E-08,  avg # of iterations =  2.0

     total cpu time spent up to now is       38.4 secs

     total energy              =     -26.16933030 Ry
     estimated scf accuracy    <       0.00000016 Ry

     iteration #  3     ecut=    80.00 Ry     beta= 0.70
     Davidson diagonalization with overlap
     ethr =  1.78E-09,  avg # of iterations =  1.6

     total cpu time spent up to now is       39.9 secs

     End of self-consistent calculation

          k = 0.0000 0.0000 0.0000 (  2377 PWs)   bands (ev):

   -39.4351  -5.8206   3.1931   6.7556   6.7556  10.5693  13.1897  13.1897
    16.3872

          k = 0.0000-0.0000 0.1106 (  2353 PWs)   bands (ev):

   -39.4348  -5.7518   2.6658   6.7851   6.7851  11.4885  13.3030  13.3030
    16.2275

          k = 0.0000-0.0000 0.2213 (  2365 PWs)   bands (ev):

   -39.4340  -5.5710   1.6338   6.8577   6.8577  13.6079  13.6079  13.6888
    15.9572

          k = 0.0000-0.0000 0.3319 (  2359 PWs)   bands (ev):

   -39.4332  -5.3640   0.7727   6.9325   6.9325  13.9749  13.9749  15.7542
    16.4122

          k =-0.0000 0.0000-0.4425 (  2358 PWs)   bands (ev):

   -39.4329  -5.2681   0.4417   6.9641   6.9641  14.1540  14.1540  15.6809
    17.8744

          k = 0.0000 0.1498-0.0000 (  2383 PWs)   bands (ev):

   -39.4322  -5.5668   3.5108   5.5342   6.1251  10.5166  13.6284  14.3740
    16.2653

          k = 0.0000 0.1498 0.1106 (  2379 PWs)   bands (ev):

   -39.4319  -5.4966   2.9596   5.5868   6.1630  11.4067  13.7339  14.4758
    15.6658

          k = 0.0000 0.1498 0.2213 (  2368 PWs)   bands (ev):

   -39.4312  -5.3119   1.8984   5.7068   6.2569  13.2052  14.2974  14.7571
    14.9236

          k = 0.0000 0.1498 0.3319 (  2368 PWs)   bands (ev):

   -39.4304  -5.0999   1.0206   5.8293   6.3545  13.8552  14.3442  15.1197
    16.5507

          k = 0.0000 0.1498-0.4425 (  2358 PWs)   bands (ev):

   -39.4301  -5.0014   0.6838   5.8818   6.3960  13.9898  14.1404  15.3142
    18.4288

          k = 0.0000 0.2995-0.0000 (  2380 PWs)   bands (ev):

   -39.4253  -4.8082   3.0760   4.4484   5.0457  10.7174  13.7015  13.9925
    16.9632

          k = 0.0000 0.2995 0.1106 (  2373 PWs)   bands (ev):

   -39.4250  -4.7338   3.0868   3.9033   5.0925  11.5767  13.1859  14.0367
    17.0013

          k = 0.0000 0.2995 0.2213 (  2357 PWs)   bands (ev):

   -39.4242  -4.5379   2.5934   3.4240   5.2095  12.1914  13.0232  14.7761
    17.0710

          k = 0.0000 0.2995 0.3319 (  2352 PWs)   bands (ev):

   -39.4235  -4.3116   1.7370   3.5213   5.3326  11.4095  13.4522  16.9228
    17.0376

          k = 0.0000 0.2995-0.4425 (  2350 PWs)   bands (ev):

   -39.4232  -4.2060   1.3951   3.5812   5.3856  11.1190  13.5140  16.9449
    18.0400

          k = 0.0000 0.4493-0.0000 (  2362 PWs)   bands (ev):

   -39.4183  -3.5648   0.5717   4.2582   5.9223  11.2808  11.3321  13.1086
    16.9728

          k = 0.0000 0.4493 0.1106 (  2364 PWs)   bands (ev):

   -39.4180  -3.4828   0.6286   4.3092   5.2314  10.6066  12.0661  13.6645
    17.5684

          k = 0.0000 0.4493 0.2213 (  2366 PWs)   bands (ev):

   -39.4173  -3.2664   0.7841   3.9695   4.4371   9.5057  12.9107  15.2410
    17.2512

          k = 0.0000 0.4493 0.3319 (  2355 PWs)   bands (ev):

   -39.4166  -3.0155   0.9911   2.9100   4.5726   8.6985  13.0789  16.2857
    17.5452

          k = 0.0000 0.4493-0.4425 (  2350 PWs)   bands (ev):

   -39.4163  -2.8979   1.1180   2.4653   4.6312   8.4056  13.0927  15.9334
    18.4870

          k =-0.0000-0.5990 0.0000 (  2370 PWs)   bands (ev):

   -39.4154  -2.2624  -1.1786   3.9806   7.1751   9.6240  12.1548  12.1628
    16.6979

          k =-0.0000-0.5990 0.1106 (  2362 PWs)   bands (ev):

   -39.4151  -2.1496  -1.1461   4.0328   6.3356   9.0322  12.5192  13.2926
    17.1839

          k =-0.0000-0.5990 0.2213 (  2368 PWs)   bands (ev):

   -39.4144  -1.8406  -1.0646   4.1638   4.8783   8.0642  12.8641  15.5944
    16.9947

          k =-0.0000-0.5990 0.3319 (  2376 PWs)   bands (ev):

   -39.4137  -1.4529  -0.9783   3.6866   4.3029   7.3489  12.9388  15.9618
    18.0448

          k =-0.0000-0.5990-0.4425 (  2372 PWs)   bands (ev):

   -39.4134  -1.2542  -0.9410   3.2082   4.3631   7.0911  12.9366  15.5929
    18.5992

          k = 0.1297 0.2246-0.0000 (  2385 PWs)   bands (ev):

   -39.4273  -5.0605   4.0786   4.1392   4.8729  10.7521  14.5950  14.7669
    15.1715

          k = 0.1297 0.2246 0.1106 (  2367 PWs)   bands (ev):

   -39.4270  -4.9875   3.5215   4.1410   4.9639  11.6437  14.1107  14.6353
    15.3421

          k = 0.1297 0.2246 0.2213 (  2362 PWs)   bands (ev):

   -39.4262  -4.7953   2.4111   4.3006   5.0826  13.0772  13.4983  14.9402
    15.6503

          k = 0.1297 0.2246 0.3319 (  2356 PWs)   bands (ev):

   -39.4255  -4.5737   1.5088   4.4752   5.1839  12.2814  14.2815  16.0226
    16.4406

          k = 0.1297 0.2246-0.4425 (  2356 PWs)   bands (ev):

   -39.4252  -4.4704   1.1634   4.5528   5.2254  11.9847  14.3636  16.2165
    16.6505

          k = 0.1297 0.3744-0.0000 (  2351 PWs)   bands (ev):

   -39.4203  -4.0561   1.8585   3.6874   5.3582  11.3017  12.5117  14.4542
    16.6590

          k = 0.1297 0.3744 0.1106 (  2364 PWs)   bands (ev):

   -39.4200  -3.9777   1.9204   3.6944   4.7654  11.7509  12.2314  14.6776
    17.0883

          k = 0.1297 0.3744 0.2213 (  2363 PWs)   bands (ev):

   -39.4193  -3.7710   2.0744   3.3772   4.0268  10.5602  13.8965  15.1072
    16.7134

          k = 0.1297 0.3744 0.3319 (  2362 PWs)   bands (ev):

   -39.4186  -3.5313   2.1993   2.5891   4.0313   9.6402  14.3767  15.5241
    17.6556

          k = 0.1297 0.3744-0.4425 (  2352 PWs)   bands (ev):

   -39.4183  -3.4190   2.0884   2.4281   4.0694   9.2959  14.4095  15.3725
    18.0920

          k = 0.1297 0.5241-0.0000 (  2356 PWs)   bands (ev):

   -39.4154  -2.6193  -0.3823   3.1212   6.9580  10.2043  12.0802  13.5022
    16.4756

          k = 0.1297 0.5241 0.1106 (  2363 PWs)   bands (ev):

   -39.4151  -2.5281  -0.3241   3.1650   6.1872   9.5255  13.0569  14.0176
    16.3076

          k = 0.1297 0.5241 0.2213 (  2362 PWs)   bands (ev):

   -39.4144  -2.2872  -0.1661   3.2821   4.8172   8.3847  14.0472  15.3247
    15.9624

          k = 0.1297 0.5241 0.3319 (  2360 PWs)   bands (ev):

   -39.4137  -2.0082   0.0347   3.4105   3.7001   7.4979  14.1755  14.9906
    18.0786

          k = 0.1297 0.5241-0.4425 (  2364 PWs)   bands (ev):

   -39.4134  -1.8779   0.1426   3.2086   3.5159   7.1621  14.1918  14.7643
    19.4738

          k = 0.2594 0.4493-0.0000 (  2352 PWs)   bands (ev):

   -39.4154  -2.8304   0.6831   1.9146   6.7882  10.8470  12.1541  14.8127
    15.8047

          k = 0.2594 0.4493 0.1106 (  2357 PWs)   bands (ev):

   -39.4151  -2.7451   0.7736   1.9291   6.0695  10.0377  13.1269  15.5311
    15.7157

          k = 0.2594 0.4493 0.2213 (  2371 PWs)   bands (ev):

   -39.4144  -2.5194   1.0135   1.9772   4.7693   8.6895  14.5302  15.6000
    17.1051

          k = 0.2594 0.4493 0.3319 (  2356 PWs)   bands (ev):

   -39.4137  -2.2569   1.2941   2.0723   3.6766   7.6379  14.3196  16.3350
    17.8537

          k = 0.2594 0.4493-0.4425 (  2366 PWs)   bands (ev):

   -39.4134  -2.1334   1.4269   2.1590   3.2090   7.2371  14.1819  16.3324
    18.0647

          k = 0.2594 0.5990-0.0000 (  2374 PWs)   bands (ev):

   -39.4133  -1.5144  -0.7199   1.3563   8.1192   9.4460  12.8689  13.9005
    14.9998

          k = 0.2594 0.5990 0.1106 (  2359 PWs)   bands (ev):

   -39.4130  -1.4072  -0.6500   1.3776   7.2794   8.6710  13.9763  14.5811
    15.0311

          k = 0.2594 0.5990 0.2213 (  2364 PWs)   bands (ev):

   -39.4124  -1.1159  -0.4738   1.4469   5.8412   7.3369  14.2659  16.1782
    16.3745

          k = 0.2594 0.5990 0.3319 (  2367 PWs)   bands (ev):

   -39.4117  -0.7576  -0.2884   1.5576   4.6826   6.2723  13.9246  16.7562
    18.4458

          k = 0.2594 0.5990-0.4425 (  2368 PWs)   bands (ev):

   -39.4114  -0.5782  -0.2096   1.6236   4.2251   5.8589  13.8004  16.7643
    19.7893

     the Fermi energy is     5.2325 ev

!    total energy              =     -26.16933033 Ry
     estimated scf accuracy    <          2.5E-09 Ry

     The total energy is the sum of the following terms:
     one-electron contribution =      -2.84926436 Ry
     hartree contribution      =       3.80626106 Ry
     xc contribution           =      -8.22302743 Ry
     ewald contribution        =     -18.90329959 Ry

     convergence has been achieved in   3 iterations

     Forces acting on atoms (cartesian axes, Ry/au):

     atom    1 type  1   force =     0.00000000    0.00000000   -0.00000000
     atom    2 type  2   force =     0.00000000    0.00000000    0.00000000
     atom    3 type  2   force =    -0.00000000   -0.00000000   -0.00000000

     Total force =     0.000000     Total SCF correction =     0.000000


     Computing stress (Cartesian axis) and pressure

          total   stress  (Ry/bohr**3)                   (kbar)     P=       -1.54
   0.00000361  -0.00000000   0.00000000            0.53       -0.00        0.00
   0.00000000   0.00000361  -0.00000000            0.00        0.53       -0.00
   0.00000000  -0.00000000  -0.00003872            0.00       -0.00       -5.70

     Energy error            =      2.5E-05 Ry
     Gradient error          =      2.1E-30 Ry/Bohr
     Cell gradient error     =      5.7E+00 kbar

     number of scf cycles    =   4
     number of bfgs steps    =   3

     enthalpy           old  =     -26.1693057814 Ry
     enthalpy           new  =     -26.1693303265 Ry

     CASE: enthalpy          _new < enthalpy          _old

     new trust radius        =       0.0031846273 bohr
     new conv_thr            =       0.0000000100 Ry

     new unit-cell volume =    179.65348 a.u.^3 (    26.62190 Ang^3 )
     density =      1.78143 g/cm^3

CELL_PARAMETERS (alat=  5.82600000)
   0.964150786  -0.000000000  -0.000000000
  -0.482075393   0.834979074   0.000000000
  -0.000000000   0.000000000   1.128505395

ATOMIC_POSITIONS (crystal)
Li               0.0000000000       -0.0000000000        0.0000000000
B                0.3333333333        0.6666666667        0.5000000000
B                0.6666666667        0.3333333333        0.5000000000



     Writing config-only to output data dir ./tmp/LiB2.save/ :
     XML data file
     NEW-OLD atomic charge density approx. for the potential

     total cpu time spent up to now is       41.3 secs

     Self-consistent Calculation

     iteration #  1     ecut=    80.00 Ry     beta= 0.70
     Davidson diagonalization with overlap
     ethr =  1.00E-06,  avg # of iterations =  2.0

     Threshold (ethr) on eigenvalues was too large:
     Diagonalizing with lowered threshold

     Davidson diagonalization with overlap
     ethr =  5.48E-10,  avg # of iterations =  3.5

     total cpu time spent up to now is       44.7 secs

     total energy              =     -26.16933790 Ry
     estimated scf accuracy    <       0.00000005 Ry

     iteration #  2     ecut=    80.00 Ry     beta= 0.70
     Davidson diagonalization with overlap
     ethr =  6.01E-10,  avg # of iterations =  1.0

     total cpu time spent up to now is       46.1 secs

     End of self-consistent calculation

          k = 0.0000 0.0000 0.0000 (  2377 PWs)   bands (ev):

   -39.4270  -5.8156   3.2116   6.7551   6.7551  10.5951  13.1805  13.1805
    16.3704

          k = 0.0000-0.0000 0.1108 (  2353 PWs)   bands (ev):

   -39.4266  -5.7464   2.6815   6.7849   6.7849  11.5179  13.2944  13.2944
    16.2132

          k = 0.0000-0.0000 0.2215 (  2365 PWs)   bands (ev):

   -39.4258  -5.5643   1.6444   6.8582   6.8582  13.6009  13.6009  13.7256
    15.9449

          k = 0.0000-0.0000 0.3323 (  2359 PWs)   bands (ev):

   -39.4250  -5.3556   0.7790   6.9338   6.9338  13.9701  13.9701  15.7428
    16.4564

          k =-0.0000 0.0000-0.4431 (  2358 PWs)   bands (ev):

   -39.4247  -5.2589   0.4463   6.9657   6.9657  14.1505  14.1505  15.6697
    17.8649

          k = 0.0000 0.1497-0.0000 (  2383 PWs)   bands (ev):

   -39.4241  -5.5621   3.5290   5.5334   6.1246  10.5387  13.6243  14.3645
    16.2661

          k = 0.0000 0.1497 0.1108 (  2379 PWs)   bands (ev):

   -39.4237  -5.4914   2.9749   5.5864   6.1628  11.4307  13.7320  14.4668
    15.6613

          k = 0.0000 0.1497 0.2215 (  2368 PWs)   bands (ev):

   -39.4230  -5.3054   1.9086   5.7074   6.2576  13.2149  14.3172  14.7494
    14.9178

          k = 0.0000 0.1497 0.3323 (  2368 PWs)   bands (ev):

   -39.4222  -5.0917   1.0265   5.8310   6.3561  13.8509  14.3358  15.1140
    16.5932

          k = 0.0000 0.1497-0.4431 (  2358 PWs)   bands (ev):

   -39.4218  -4.9924   0.6881   5.8839   6.3981  13.9860  14.1312  15.3098
    18.4198

          k = 0.0000 0.2994-0.0000 (  2380 PWs)   bands (ev):

   -39.4171  -4.8042   3.0758   4.4657   5.0455  10.7353  13.7016  13.9982
    16.9538

          k = 0.0000 0.2994 0.1108 (  2373 PWs)   bands (ev):

   -39.4168  -4.7294   3.0877   3.9168   5.0927  11.5946  13.1873  14.0428
    16.9925

          k = 0.0000 0.2994 0.2215 (  2357 PWs)   bands (ev):

   -39.4160  -4.5321   2.6010   3.4269   5.2107  12.1900  13.0263  14.8033
    17.0636

          k = 0.0000 0.2994 0.3323 (  2352 PWs)   bands (ev):

   -39.4153  -4.3041   1.7417   3.5243   5.3349  11.4051  13.4481  16.9613
    17.0321

          k = 0.0000 0.2994-0.4431 (  2350 PWs)   bands (ev):

   -39.4150  -4.1976   1.3982   3.5847   5.3884  11.1134  13.5099  16.9397
    18.0333

          k = 0.0000 0.4491-0.0000 (  2362 PWs)   bands (ev):

   -39.4101  -3.5620   0.5730   4.2584   5.9379  11.2943  11.3425  13.1126
    16.9888

          k = 0.0000 0.4491 0.1108 (  2364 PWs)   bands (ev):

   -39.4098  -3.4795   0.6302   4.3098   5.2441  10.6133  12.0752  13.6778
    17.5859

          k = 0.0000 0.4491 0.2215 (  2366 PWs)   bands (ev):

   -39.4091  -3.2617   0.7867   3.9773   4.4388   9.5079  12.9081  15.2724
    17.2515

          k = 0.0000 0.4491 0.3323 (  2355 PWs)   bands (ev):

   -39.4084  -3.0089   0.9951   2.9135   4.5755   8.6974  13.0749  16.2825
    17.5801

          k = 0.0000 0.4491-0.4431 (  2350 PWs)   bands (ev):

   -39.4081  -2.8904   1.1230   2.4665   4.6346   8.4033  13.0887  15.9289
    18.4941

          k =-0.0000-0.5988 0.0000 (  2370 PWs)   bands (ev):

   -39.4072  -2.2623  -1.1746   3.9809   7.1886   9.6374  12.1486  12.1868
    16.7172

          k =-0.0000-0.5988 0.1108 (  2362 PWs)   bands (ev):

   -39.4069  -2.1490  -1.1418   4.0335   6.3465   9.0414  12.5146  13.3194
    17.2060

          k =-0.0000-0.5988 0.2215 (  2368 PWs)   bands (ev):

   -39.4062  -1.8383  -1.0595   4.1656   4.8846   8.0684  12.8600  15.6263
    16.9958

          k =-0.0000-0.5988 0.3323 (  2376 PWs)   bands (ev):

   -39.4056  -1.4482  -0.9722   3.6884   4.3059   7.3498  12.9348  15.9589
    18.0815

          k =-0.0000-0.5988-0.4431 (  2372 PWs)   bands (ev):

   -39.4053  -1.2480  -0.9345   3.2079   4.3667   7.0908  12.9327  15.5886
    18.6031

          k = 0.1296 0.2246-0.0000 (  2385 PWs)   bands (ev):

   -39.4191  -5.0562   4.0777   4.1568   4.8730  10.7732  14.5943  14.7707
    15.1594

          k = 0.1296 0.2246 0.1108 (  2367 PWs)   bands (ev):

   -39.4188  -4.9828   3.5356   4.1405   4.9650  11.6668  14.1109  14.6365
    15.3316

          k = 0.1296 0.2246 0.2215 (  2362 PWs)   bands (ev):

   -39.4181  -4.7892   2.4204   4.3013   5.0843  13.0740  13.5134  14.9562
    15.6409

          k = 0.1296 0.2246 0.3323 (  2356 PWs)   bands (ev):

   -39.4173  -4.5660   1.5139   4.4774   5.1864  12.2754  14.2779  16.0153
    16.4647

          k = 0.1296 0.2246-0.4431 (  2356 PWs)   bands (ev):

   -39.4170  -4.4618   1.1669   4.5557   5.2282  11.9776  14.3596  16.2106
    16.6514

          k = 0.1296 0.3743-0.0000 (  2351 PWs)   bands (ev):

   -39.4122  -4.0528   1.8585   3.6881   5.3745  11.3218  12.5195  14.4518
    16.6655

          k = 0.1296 0.3743 0.1108 (  2364 PWs)   bands (ev):

   -39.4119  -3.9740   1.9208   3.6957   4.7785  11.7569  12.2514  14.6783
    17.0903

          k = 0.1296 0.3743 0.2215 (  2363 PWs)   bands (ev):

   -39.4111  -3.7658   2.0761   3.3831   4.0312  10.5608  13.9047  15.1240
    16.7227

          k = 0.1296 0.3743 0.3323 (  2362 PWs)   bands (ev):

   -39.4104  -3.5244   2.2022   2.5932   4.0345   9.6372  14.3727  15.5289
    17.6906

          k = 0.1296 0.3743-0.4431 (  2352 PWs)   bands (ev):

   -39.4101  -3.4111   2.0904   2.4323   4.0729   9.2915  14.4054  15.3734
    18.0859

          k = 0.1296 0.5240-0.0000 (  2356 PWs)   bands (ev):

   -39.4072  -2.6177  -0.3803   3.1220   6.9722  10.2160  12.1005  13.5021
    16.4910

          k = 0.1296 0.5240 0.1108 (  2363 PWs)   bands (ev):

   -39.4069  -2.5260  -0.3217   3.1662   6.1986   9.5339  13.0743  14.0227
    16.3212

          k = 0.1296 0.5240 0.2215 (  2362 PWs)   bands (ev):

   -39.4063  -2.2835  -0.1627   3.2841   4.8239   8.3884  14.0437  15.3424
    15.9821

          k = 0.1296 0.5240 0.3323 (  2360 PWs)   bands (ev):

   -39.4056  -2.0024   0.0395   3.4135   3.7026   7.4978  14.1712  14.9936
    18.1141

          k = 0.1296 0.5240-0.4431 (  2364 PWs)   bands (ev):

   -39.4053  -1.8710   0.1482   3.2086   3.5198   7.1603  14.1877  14.7654
    19.5119

          k = 0.2593 0.4491-0.0000 (  2352 PWs)   bands (ev):

   -39.4072  -2.8283   0.6826   1.9176   6.8028  10.8565  12.1758  14.8243
    15.8218

          k = 0.2593 0.4491 0.1108 (  2357 PWs)   bands (ev):

   -39.4069  -2.7425   0.7736   1.9322   6.0813  10.0445  13.1510  15.5444
    15.7268

          k = 0.2593 0.4491 0.2215 (  2371 PWs)   bands (ev):

   -39.4063  -2.5154   1.0150   1.9806   4.7763   8.6919  14.5456  15.6148
    17.1076

          k = 0.2593 0.4491 0.3323 (  2356 PWs)   bands (ev):

   -39.4056  -2.2509   1.2976   2.0763   3.6793   7.6364  14.3257  16.3330
    17.8486

          k = 0.2593 0.4491-0.4431 (  2366 PWs)   bands (ev):

   -39.4053  -2.1264   1.4315   2.1638   3.2094   7.2337  14.1863  16.3296
    18.0585

          k = 0.2593 0.5988-0.0000 (  2374 PWs)   bands (ev):

   -39.4052  -1.5145  -0.7184   1.3596   8.1318   9.4576  12.8907  13.9157
    15.0175

          k = 0.2593 0.5988 0.1108 (  2359 PWs)   bands (ev):

   -39.4049  -1.4067  -0.6479   1.3809   7.2894   8.6797  14.0005  14.5978
    15.0447

          k = 0.2593 0.5988 0.2215 (  2364 PWs)   bands (ev):

   -39.4042  -1.1139  -0.4703   1.4507   5.8466   7.3410  14.2765  16.2060
    16.3792

          k = 0.2593 0.5988 0.3323 (  2367 PWs)   bands (ev):

   -39.4035  -0.7532  -0.2832   1.5620   4.6835   6.2722  13.9314  16.7537
    18.4741

          k = 0.2593 0.5988-0.4431 (  2368 PWs)   bands (ev):

   -39.4033  -0.5724  -0.2036   1.6286   4.2240   5.8569  13.8059  16.7617
    19.7917

     the Fermi energy is     5.2376 ev

!    total energy              =     -26.16933790 Ry
     estimated scf accuracy    <          3.5E-09 Ry

     The total energy is the sum of the following terms:
     one-electron contribution =      -2.83854271 Ry
     hartree contribution      =       3.80243230 Ry
     xc contribution           =      -8.22281217 Ry
     ewald contribution        =     -18.91041532 Ry

     convergence has been achieved in   2 iterations

     Forces acting on atoms (cartesian axes, Ry/au):

     atom    1 type  1   force =     0.00000000    0.00000000    0.00000000
     atom    2 type  2   force =    -0.00000000   -0.00000000    0.00000000
     atom    3 type  2   force =     0.00000000    0.00000000   -0.00000000

     Total force =     0.000000     Total SCF correction =     0.000000


     Computing stress (Cartesian axis) and pressure

          total   stress  (Ry/bohr**3)                   (kbar)     P=       -2.02
  -0.00000439   0.00000000  -0.00000000           -0.65        0.00       -0.00
  -0.00000000  -0.00000439   0.00000000           -0.00       -0.65        0.00
  -0.00000000   0.00000000  -0.00003250           -0.00        0.00       -4.78

     Energy error            =      7.6E-06 Ry
     Gradient error          =      3.2E-30 Ry/Bohr
     Cell gradient error     =      4.8E+00 kbar

     number of scf cycles    =   5
     number of bfgs steps    =   4

     enthalpy           old  =     -26.1693303265 Ry
     enthalpy           new  =     -26.1693379009 Ry

     CASE: enthalpy          _new < enthalpy          _old

     new trust radius        =       0.0035063876 bohr
     new conv_thr            =       0.0000000100 Ry

     new unit-cell volume =    179.46754 a.u.^3 (    26.59435 Ang^3 )
     density =      1.78327 g/cm^3

CELL_PARAMETERS (alat=  5.82600000)
   0.964282577  -0.000000000  -0.000000000
  -0.482141288   0.835093208   0.000000000
  -0.000000000   0.000000000   1.127029295

ATOMIC_POSITIONS (crystal)
Li               0.0000000000       -0.0000000000        0.0000000000
B                0.3333333333        0.6666666667        0.5000000000
B                0.6666666667        0.3333333333        0.5000000000



     Writing config-only to output data dir ./tmp/LiB2.save/ :
     XML data file
     NEW-OLD atomic charge density approx. for the potential

     total cpu time spent up to now is       47.6 secs

     Self-consistent Calculation

     iteration #  1     ecut=    80.00 Ry     beta= 0.70
     Davidson diagonalization with overlap
     ethr =  1.00E-06,  avg # of iterations =  2.1

     Threshold (ethr) on eigenvalues was too large:
     Diagonalizing with lowered threshold

     Davidson diagonalization with overlap
     ethr =  1.06E-09,  avg # of iterations =  3.1

     total cpu time spent up to now is       50.2 secs

     total energy              =     -26.16934434 Ry
     estimated scf accuracy    <       0.00000006 Ry

     iteration #  2     ecut=    80.00 Ry     beta= 0.70
     Davidson diagonalization with overlap
     ethr =  7.07E-10,  avg # of iterations =  1.9

     total cpu time spent up to now is       51.7 secs

     End of self-consistent calculation

          k = 0.0000 0.0000 0.0000 (  2377 PWs)   bands (ev):

   -39.4141  -5.8089   3.2326   6.7604   6.7604  10.6261  13.1793  13.1793
    16.3671

          k = 0.0000-0.0000 0.1109 (  2353 PWs)   bands (ev):

   -39.4138  -5.7391   2.6996   6.7905   6.7905  11.5527  13.2938  13.2938
    16.2112

          k = 0.0000-0.0000 0.2218 (  2365 PWs)   bands (ev):

   -39.4130  -5.5558   1.6573   6.8646   6.8646  13.6020  13.6020  13.7682
    15.9437

          k = 0.0000-0.0000 0.3327 (  2359 PWs)   bands (ev):

   -39.4122  -5.3455   0.7876   6.9409   6.9409  13.9736  13.9736  15.7417
    16.5073

          k =-0.0000 0.0000-0.4436 (  2358 PWs)   bands (ev):

   -39.4118  -5.2479   0.4532   6.9732   6.9732  14.1553  14.1553  15.6686
    17.8707

          k = 0.0000 0.1497-0.0000 (  2383 PWs)   bands (ev):

   -39.4112  -5.5555   3.5498   5.5380   6.1296  10.5660  13.6289  14.3636
    16.2770

          k = 0.0000 0.1497 0.1109 (  2379 PWs)   bands (ev):

   -39.4109  -5.4843   2.9927   5.5915   6.1682  11.4599  13.7389  14.4665
    15.6666

          k = 0.0000 0.1497 0.2218 (  2368 PWs)   bands (ev):

   -39.4101  -5.2970   1.9212   5.7136   6.2638  13.2307  14.3454  14.7505
    14.9213

          k = 0.0000 0.1497 0.3327 (  2368 PWs)   bands (ev):

   -39.4093  -5.0817   1.0349   5.8382   6.3633  13.8550  14.3363  15.1171
    16.6425

          k = 0.0000 0.1497-0.4436 (  2358 PWs)   bands (ev):

   -39.4090  -4.9815   0.6946   5.8917   6.4057  13.9907  14.1308  15.3143
    18.4257

          k = 0.0000 0.2994-0.0000 (  2380 PWs)   bands (ev):

   -39.4043  -4.7980   3.0802   4.4860   5.0503  10.7583  13.7114  14.0122
    16.9542

          k = 0.0000 0.2994 0.1109 (  2373 PWs)   bands (ev):

   -39.4040  -4.7227   3.0931   3.9336   5.0979  11.6180  13.1967  14.0582
    16.9933

          k = 0.0000 0.2994 0.2218 (  2357 PWs)   bands (ev):

   -39.4032  -4.5241   2.6114   3.4346   5.2169  12.1958  13.0368  14.8385
    17.0657

          k = 0.0000 0.2994 0.3327 (  2352 PWs)   bands (ev):

   -39.4024  -4.2943   1.7490   3.5321   5.3422  11.4077  13.4530  17.0068
    17.0352

          k = 0.0000 0.2994-0.4436 (  2350 PWs)   bands (ev):

   -39.4021  -4.1869   1.4038   3.5931   5.3962  11.1147  13.5149  16.9428
    18.0371

          k = 0.0000 0.4491-0.0000 (  2362 PWs)   bands (ev):

   -39.3973  -3.5567   0.5779   4.2631   5.9573  11.3135  11.3594  13.1254
    17.0136

          k = 0.0000 0.4491 0.1109 (  2364 PWs)   bands (ev):

   -39.3970  -3.4737   0.6356   4.3149   5.2604  10.6262  12.0907  13.6998
    17.6123

          k = 0.0000 0.4491 0.2218 (  2366 PWs)   bands (ev):

   -39.3963  -3.2543   0.7931   3.9885   4.4450   9.5159  12.9144  15.3108
    17.2598

          k = 0.0000 0.4491 0.3327 (  2355 PWs)   bands (ev):

   -39.3956  -2.9997   1.0029   2.9200   4.5829   8.7020  13.0802  16.2872
    17.6221

          k = 0.0000 0.4491-0.4436 (  2350 PWs)   bands (ev):

   -39.3953  -2.8801   1.1320   2.4706   4.6426   8.4065  13.0941  15.9320
    18.5103

          k =-0.0000-0.5987 0.0000 (  2370 PWs)   bands (ev):

   -39.3944  -2.2587  -1.1679   3.9856   7.2068   9.6562  12.1506  12.2164
    16.7456

          k =-0.0000-0.5987 0.1109 (  2362 PWs)   bands (ev):

   -39.3941  -2.1449  -1.1347   4.0387   6.3618   9.0558  12.5188  13.3522
    17.2368

          k =-0.0000-0.5987 0.2218 (  2368 PWs)   bands (ev):

   -39.3934  -1.8324  -1.0516   4.1719   4.8947   8.0778  12.8652  15.6649
    17.0049

          k =-0.0000-0.5987 0.3327 (  2376 PWs)   bands (ev):

   -39.3927  -1.4397  -0.9634   3.6936   4.3134   7.3558  12.9402  15.9637
    18.1259

          k =-0.0000-0.5987-0.4436 (  2372 PWs)   bands (ev):

   -39.3924  -1.2379  -0.9253   3.2106   4.3748   7.0957  12.9382  15.5918
    18.6175

          k = 0.1296 0.2245-0.0000 (  2385 PWs)   bands (ev):

   -39.4063  -5.0499   4.0819   4.1772   4.8779  10.7995  14.6031  14.7834
    15.1576

          k = 0.1296 0.2245 0.1109 (  2367 PWs)   bands (ev):

   -39.4060  -4.9760   3.5525   4.1452   4.9708  11.6951  14.1196  14.6471
    15.3313

          k = 0.1296 0.2245 0.2218 (  2362 PWs)   bands (ev):

   -39.4052  -4.7811   2.4323   4.3073   5.0908  13.0788  13.5343  14.9811
    15.6420

          k = 0.1296 0.2245 0.3327 (  2356 PWs)   bands (ev):

   -39.4045  -4.5561   1.5216   4.4848   5.1938  12.2770  14.2829  16.0186
    16.4950

          k = 0.1296 0.2245-0.4436 (  2356 PWs)   bands (ev):

   -39.4041  -4.4511   1.1728   4.5639   5.2360  11.9778  14.3644  16.2153
    16.6602

          k = 0.1296 0.3742-0.0000 (  2351 PWs)   bands (ev):

   -39.3993  -4.0470   1.8629   3.6931   5.3943  11.3472  12.5347  14.4591
    16.6810

          k = 0.1296 0.3742 0.1109 (  2364 PWs)   bands (ev):

   -39.3990  -3.9677   1.9256   3.7011   4.7951  11.7696  12.2771  14.6888
    17.1020

          k = 0.1296 0.3742 0.2218 (  2363 PWs)   bands (ev):

   -39.3983  -3.7582   2.0821   3.3923   4.0398  10.5678  13.9200  15.1493
    16.7405

          k = 0.1296 0.3742 0.3327 (  2362 PWs)   bands (ev):

   -39.3976  -3.5149   2.2088   2.6011   4.0422   9.6403  14.3780  15.5411
    17.7335

          k = 0.1296 0.3742-0.4436 (  2352 PWs)   bands (ev):

   -39.3973  -3.4007   2.0952   2.4410   4.0810   9.2929  14.4107  15.3821
    18.0915

          k = 0.1296 0.5239-0.0000 (  2356 PWs)   bands (ev):

   -39.3944  -2.6131  -0.3750   3.1270   6.9908  10.2336  12.1264  13.5101
    16.5156

          k = 0.1296 0.5239 0.1109 (  2363 PWs)   bands (ev):

   -39.3941  -2.5208  -0.3160   3.1714   6.2142   9.5480  13.0977  14.0367
    16.3421

          k = 0.1296 0.5239 0.2218 (  2362 PWs)   bands (ev):

   -39.3934  -2.2767  -0.1559   3.2903   4.8343   8.3973  14.0496  15.3666
    16.0098

          k = 0.1296 0.5239 0.3327 (  2360 PWs)   bands (ev):

   -39.3927  -1.9935   0.0478   3.4205   3.7086   7.5027  14.1765  15.0042
    18.1574

          k = 0.1296 0.5239-0.4436 (  2364 PWs)   bands (ev):

   -39.3924  -1.8610   0.1575   3.2118   3.5281   7.1636  14.1933  14.7742
    19.5583

          k = 0.2593 0.4491-0.0000 (  2352 PWs)   bands (ev):

   -39.3944  -2.8233   0.6863   1.9238   6.8217  10.8726  12.2031  14.8429
    15.8454

          k = 0.2593 0.4491 0.1109 (  2357 PWs)   bands (ev):

   -39.3941  -2.7370   0.7779   1.9385   6.0971  10.0574  13.1809  15.5648
    15.7456

          k = 0.2593 0.4491 0.2218 (  2371 PWs)   bands (ev):

   -39.3934  -2.5084   1.0209   1.9873   4.7871   8.6998  14.5675  15.6368
    17.1199

          k = 0.2593 0.4491 0.3327 (  2356 PWs)   bands (ev):

   -39.3927  -2.2419   1.3057   2.0837   3.6855   7.6399  14.3393  16.3404
    17.8552

          k = 0.2593 0.4491-0.4436 (  2366 PWs)   bands (ev):

   -39.3924  -2.1164   1.4407   2.1721   3.2130   7.2353  14.1983  16.3363
    18.0646

          k = 0.2593 0.5987-0.0000 (  2374 PWs)   bands (ev):

   -39.3924  -1.5109  -0.7134   1.3660   8.1495   9.4749  12.9183  13.9372
    15.0415

          k = 0.2593 0.5987 0.1109 (  2359 PWs)   bands (ev):

   -39.3921  -1.4026  -0.6424   1.3874   7.3041   8.6939  14.0310  14.6209
    15.0654

          k = 0.2593 0.5987 0.2218 (  2364 PWs)   bands (ev):

   -39.3914  -1.1080  -0.4634   1.4576   5.8561   7.3500  14.2941  16.2409
    16.3927

          k = 0.2593 0.5987 0.3327 (  2367 PWs)   bands (ev):

   -39.3907  -0.7447  -0.2747   1.5699   4.6883   6.2766  13.9457  16.7613
    18.5105

          k = 0.2593 0.5987-0.4436 (  2368 PWs)   bands (ev):

   -39.3904  -0.5625  -0.1944   1.6371   4.2264   5.8592  13.8190  16.7691
    19.8052

     the Fermi energy is     5.2472 ev

!    total energy              =     -26.16934436 Ry
     estimated scf accuracy    <          6.4E-09 Ry

     The total energy is the sum of the following terms:
     one-electron contribution =      -2.82339014 Ry
     hartree contribution      =       3.79803526 Ry
     xc contribution           =      -8.22329096 Ry
     ewald contribution        =     -18.92069852 Ry

     convergence has been achieved in   2 iterations

     Forces acting on atoms (cartesian axes, Ry/au):

     atom    1 type  1   force =    -0.00000000    0.00000000   -0.00000000
     atom    2 type  2   force =    -0.00000000   -0.00000000   -0.00000000
     atom    3 type  2   force =     0.00000000    0.00000000   -0.00000000

     Total force =     0.000000     Total SCF correction =     0.000000


     Computing stress (Cartesian axis) and pressure

          total   stress  (Ry/bohr**3)                   (kbar)     P=       -1.78
  -0.00000566  -0.00000000  -0.00000000           -0.83       -0.00       -0.00
  -0.00000000  -0.00000566   0.00000000           -0.00       -0.83        0.00
  -0.00000000   0.00000000  -0.00002506           -0.00        0.00       -3.69

     Energy error            =      6.5E-06 Ry
     Gradient error          =      1.4E-30 Ry/Bohr
     Cell gradient error     =      3.7E+00 kbar

     number of scf cycles    =   6
     number of bfgs steps    =   5

     enthalpy           old  =     -26.1693379009 Ry
     enthalpy           new  =     -26.1693443554 Ry

     CASE: enthalpy          _new < enthalpy          _old

     new trust radius        =       0.0052637441 bohr
     new conv_thr            =       0.0000000100 Ry

     new unit-cell volume =    179.14867 a.u.^3 (    26.54709 Ang^3 )
     density =      1.78645 g/cm^3

CELL_PARAMETERS (alat=  5.82600000)
   0.964373299  -0.000000000  -0.000000000
  -0.482186650   0.835171776   0.000000000
  -0.000000000   0.000000000   1.124815145

ATOMIC_POSITIONS (crystal)
Li               0.0000000000       -0.0000000000       -0.0000000000
B                0.3333333333        0.6666666667        0.5000000000
B                0.6666666667        0.3333333333        0.5000000000



     Writing config-only to output data dir ./tmp/LiB2.save/ :
     XML data file
     NEW-OLD atomic charge density approx. for the potential

     total cpu time spent up to now is       53.2 secs

     Self-consistent Calculation

     iteration #  1     ecut=    80.00 Ry     beta= 0.70
     Davidson diagonalization with overlap
     c_bands:  1 eigenvalues not converged
     ethr =  1.00E-06,  avg # of iterations =  2.5

     Threshold (ethr) on eigenvalues was too large:
     Diagonalizing with lowered threshold

     Davidson diagonalization with overlap
     c_bands:  1 eigenvalues not converged
     ethr =  3.46E-09,  avg # of iterations =  2.8

     total cpu time spent up to now is       56.5 secs

     total energy              =     -26.16935059 Ry
     estimated scf accuracy    <       0.00000022 Ry

     iteration #  2     ecut=    80.00 Ry     beta= 0.70
     Davidson diagonalization with overlap
     ethr =  2.46E-09,  avg # of iterations =  2.0

     total cpu time spent up to now is       58.1 secs

     total energy              =     -26.16935064 Ry
     estimated scf accuracy    <       0.00000003 Ry

     iteration #  3     ecut=    80.00 Ry     beta= 0.70
     Davidson diagonalization with overlap
     ethr =  2.80E-10,  avg # of iterations =  1.2

     total cpu time spent up to now is       59.7 secs

     End of self-consistent calculation

          k = 0.0000 0.0000 0.0000 (  2377 PWs)   bands (ev):

   -39.3924  -5.7985   3.2641   6.7704   6.7704  10.6740  13.1810  13.1810
    16.3689

          k = 0.0000-0.0000 0.1111 (  2353 PWs)   bands (ev):

   -39.3920  -5.7281   2.7270   6.8010   6.8010  11.6062  13.2963  13.2963
    16.2141

          k = 0.0000-0.0000 0.2223 (  2365 PWs)   bands (ev):

   -39.3912  -5.5430   1.6773   6.8761   6.8761  13.6071  13.6071  13.8335
    15.9471

          k = 0.0000-0.0000 0.3334 (  2359 PWs)   bands (ev):

   -39.3904  -5.3303   0.8013   6.9536   6.9536  13.9821  13.9821  15.7449
    16.5849

          k =-0.0000 0.0000-0.4445 (  2358 PWs)   bands (ev):

   -39.3900  -5.2315   0.4643   6.9864   6.9864  14.1658  14.1658  15.6716
    17.8863

          k = 0.0000 0.1497-0.0000 (  2383 PWs)   bands (ev):

   -39.3895  -5.5453   3.5812   5.5469   6.1389  10.6082  13.6397  14.3662
    16.2973

          k = 0.0000 0.1497 0.1111 (  2379 PWs)   bands (ev):

   -39.3892  -5.4735   3.0198   5.6010   6.1780  11.5048  13.7532  14.4697
    15.6790

          k = 0.0000 0.1497 0.2223 (  2368 PWs)   bands (ev):

   -39.3883  -5.2843   1.9408   5.7246   6.2750  13.2557  14.3910  14.7559
    14.9310

          k = 0.0000 0.1497 0.3334 (  2368 PWs)   bands (ev):

   -39.3875  -5.0666   1.0481   5.8509   6.3758  13.8647  14.3411  15.1256
    16.7179

          k = 0.0000 0.1497-0.4445 (  2358 PWs)   bands (ev):

   -39.3872  -4.9652   0.7054   5.9051   6.4188  14.0013  14.1343  15.3247
    18.4414

          k = 0.0000 0.2993-0.0000 (  2380 PWs)   bands (ev):

   -39.3825  -4.7884   3.0883   4.5169   5.0590  10.7943  13.7303  14.0363
    16.9593

          k = 0.0000 0.2993 0.1111 (  2373 PWs)   bands (ev):

   -39.3822  -4.7124   3.1025   3.9596   5.1071  11.6543  13.2143  14.0853
    16.9991

          k = 0.0000 0.2993 0.2223 (  2357 PWs)   bands (ev):

   -39.3814  -4.5118   2.6278   3.4477   5.2276  12.2077  13.0554  14.8940
    17.0732

          k = 0.0000 0.2993 0.3334 (  2352 PWs)   bands (ev):

   -39.3806  -4.2796   1.7609   3.5453   5.3547  11.4149  13.4643  17.0441
    17.0764

          k = 0.0000 0.2993-0.4445 (  2350 PWs)   bands (ev):

   -39.3803  -4.1708   1.4133   3.6070   5.4094  11.1199  13.5263  16.9515
    18.0471

          k = 0.0000 0.4490-0.0000 (  2362 PWs)   bands (ev):

   -39.3755  -3.5480   0.5864   4.2715   5.9872  11.3439  11.3870  13.1485
    17.0542

          k = 0.0000 0.4490 0.1111 (  2364 PWs)   bands (ev):

   -39.3752  -3.4643   0.6446   4.3240   5.2859  10.6478  12.1162  13.7362
    17.6550

          k = 0.0000 0.4490 0.2223 (  2366 PWs)   bands (ev):

   -39.3745  -3.2428   0.8037   4.0063   4.4557   9.5305  12.9275  15.3704
    17.2764

          k = 0.0000 0.4490 0.3334 (  2355 PWs)   bands (ev):

   -39.3738  -2.9854   1.0157   2.9311   4.5954   8.7114  13.0923  16.2981
    17.6866

          k = 0.0000 0.4490-0.4445 (  2350 PWs)   bands (ev):

   -39.3734  -2.8643   1.1465   2.4780   4.6559   8.4140  13.1062  15.9408
    18.5380

          k =-0.0000-0.5987 0.0000 (  2370 PWs)   bands (ev):

   -39.3726  -2.2524  -1.1572   3.9940   7.2353   9.6861  12.1573  12.2626
    16.7916

          k =-0.0000-0.5987 0.1111 (  2362 PWs)   bands (ev):

   -39.3723  -2.1377  -1.1236   4.0476   6.3861   9.0793  12.5289  13.4031
    17.2859

          k =-0.0000-0.5987 0.2223 (  2368 PWs)   bands (ev):

   -39.3716  -1.8226  -1.0394   4.1825   4.9113   8.0939  12.8771  15.7246
    17.0222

          k =-0.0000-0.5987 0.3334 (  2376 PWs)   bands (ev):

   -39.3709  -1.4259  -0.9500   3.7027   4.3259   7.3671  12.9525  15.9748
    18.1943

          k =-0.0000-0.5987-0.4445 (  2372 PWs)   bands (ev):

   -39.3706  -1.2216  -0.9113   3.2161   4.3881   7.1051  12.9505  15.6006
    18.6438

[...]
               a(3) = (  -0.000000   0.000000   1.122786 )  

     reciprocal axes: (cart. coord. in units 2 pi/alat)
               b(1) = (  1.036930  0.598672 -0.000000 )  
               b(2) = (  0.000000  1.197344 -0.000000 )  
               b(3) = (  0.000000 -0.000000  0.890642 )  


     PseudoPot. # 1 for Li read from file:
     ./PSEUDO/Li_ONCV_PBE_sr.upf
     MD5 check sum: 50ff420e78310ffa21704f3361e624a4
     Pseudo is Norm-conserving, Zval =  3.0
     Generated using ONCVPSP code by D. R. Hamann
     Using radial grid of 1944 points,  4 beta functions with: 
                l(1) =   0
                l(2) =   0
                l(3) =   1
                l(4) =   1

     PseudoPot. # 2 for B  read from file:
     ./PSEUDO/B_ONCV_PBE_sr.upf
     MD5 check sum: 12e13f68e8dc593c0a1d43390bab284b
     Pseudo is Norm-conserving + core correction, Zval =  3.0
     Generated using ONCVPSP code by D. R. Hamann
     Using radial grid of 1534 points,  4 beta functions with: 
                l(1) =   0
                l(2) =   0
                l(3) =   1
                l(4) =   1

     atomic species   valence    mass     pseudopotential
     Li                3.00     6.94000     Li( 1.00)
     B                 3.00    10.81000     B ( 1.00)

     24 Sym. Ops., with inversion, found



   Cartesian axes

     site n.     atom                  positions (alat units)
         1        Li     tau(   1) = (   0.0000000  -0.0000000  -0.0000000  )
         2        B      tau(   2) = (  -0.0000000   0.5567879   0.5613928  )
         3        B      tau(   3) = (   0.4821925   0.2783940   0.5613928  )

     number of k points=    50 (tetrahedron method)
                       cart. coord. in units 2pi/alat
        k(    1) = (   0.0000000   0.0000000   0.0000000), wk =   0.0039062
        k(    2) = (   0.0000000  -0.0000000   0.1113302), wk =   0.0078125
        k(    3) = (   0.0000000  -0.0000000   0.2226605), wk =   0.0078125
        k(    4) = (   0.0000000  -0.0000000   0.3339907), wk =   0.0078125
        k(    5) = (  -0.0000000   0.0000000  -0.4453210), wk =   0.0039062
        k(    6) = (   0.0000000   0.1496680  -0.0000000), wk =   0.0234375
        k(    7) = (   0.0000000   0.1496680   0.1113302), wk =   0.0468750
        k(    8) = (   0.0000000   0.1496680   0.2226605), wk =   0.0468750
        k(    9) = (   0.0000000   0.1496680   0.3339907), wk =   0.0468750
        k(   10) = (   0.0000000   0.1496680  -0.4453210), wk =   0.0234375
        k(   11) = (   0.0000000   0.2993360  -0.0000000), wk =   0.0234375
        k(   12) = (   0.0000000   0.2993360   0.1113302), wk =   0.0468750
        k(   13) = (   0.0000000   0.2993360   0.2226605), wk =   0.0468750
        k(   14) = (   0.0000000   0.2993360   0.3339907), wk =   0.0468750
        k(   15) = (   0.0000000   0.2993360  -0.4453210), wk =   0.0234375
        k(   16) = (   0.0000000   0.4490040  -0.0000000), wk =   0.0234375
        k(   17) = (   0.0000000   0.4490040   0.1113302), wk =   0.0468750
        k(   18) = (   0.0000000   0.4490040   0.2226605), wk =   0.0468750
        k(   19) = (   0.0000000   0.4490040   0.3339907), wk =   0.0468750
        k(   20) = (   0.0000000   0.4490040  -0.4453210), wk =   0.0234375
        k(   21) = (  -0.0000000  -0.5986720   0.0000000), wk =   0.0117188
        k(   22) = (  -0.0000000  -0.5986720   0.1113302), wk =   0.0234375
        k(   23) = (  -0.0000000  -0.5986720   0.2226605), wk =   0.0234375
        k(   24) = (  -0.0000000  -0.5986720   0.3339907), wk =   0.0234375
        k(   25) = (  -0.0000000  -0.5986720  -0.4453210), wk =   0.0117188
        k(   26) = (   0.1296163   0.2245020  -0.0000000), wk =   0.0234375
        k(   27) = (   0.1296163   0.2245020   0.1113302), wk =   0.0468750
        k(   28) = (   0.1296163   0.2245020   0.2226605), wk =   0.0468750
        k(   29) = (   0.1296163   0.2245020   0.3339907), wk =   0.0468750
        k(   30) = (   0.1296163   0.2245020  -0.4453210), wk =   0.0234375
        k(   31) = (   0.1296163   0.3741700  -0.0000000), wk =   0.0468750
        k(   32) = (   0.1296163   0.3741700   0.1113302), wk =   0.0937500
        k(   33) = (   0.1296163   0.3741700   0.2226605), wk =   0.0937500
        k(   34) = (   0.1296163   0.3741700   0.3339907), wk =   0.0937500
        k(   35) = (   0.1296163   0.3741700  -0.4453210), wk =   0.0468750
        k(   36) = (   0.1296163   0.5238380  -0.0000000), wk =   0.0468750
        k(   37) = (   0.1296163   0.5238380   0.1113302), wk =   0.0937500
        k(   38) = (   0.1296163   0.5238380   0.2226605), wk =   0.0937500
        k(   39) = (   0.1296163   0.5238380   0.3339907), wk =   0.0937500
        k(   40) = (   0.1296163   0.5238380  -0.4453210), wk =   0.0468750
        k(   41) = (   0.2592326   0.4490040  -0.0000000), wk =   0.0234375
        k(   42) = (   0.2592326   0.4490040   0.1113302), wk =   0.0468750
        k(   43) = (   0.2592326   0.4490040   0.2226605), wk =   0.0468750
        k(   44) = (   0.2592326   0.4490040   0.3339907), wk =   0.0468750
        k(   45) = (   0.2592326   0.4490040  -0.4453210), wk =   0.0234375
        k(   46) = (   0.2592326   0.5986720  -0.0000000), wk =   0.0234375
        k(   47) = (   0.2592326   0.5986720   0.1113302), wk =   0.0468750
        k(   48) = (   0.2592326   0.5986720   0.2226605), wk =   0.0468750
        k(   49) = (   0.2592326   0.5986720   0.3339907), wk =   0.0468750
        k(   50) = (   0.2592326   0.5986720  -0.4453210), wk =   0.0234375

     Dense  grid:    17341 G-vectors     FFT dimensions: (  32,  32,  40)

     Estimated max dynamical RAM per process >      29.61 MB

     Initial potential from superposition of free atoms

     starting charge       8.9949, renormalised to       9.0000
     Starting wfcs are   10 randomized atomic wfcs

     total cpu time spent up to now is       70.4 secs

     Self-consistent Calculation

     iteration #  1     ecut=    80.00 Ry     beta= 0.70
     Davidson diagonalization with overlap
     c_bands:  1 eigenvalues not converged
     c_bands:  1 eigenvalues not converged
     c_bands:  1 eigenvalues not converged
     c_bands:  1 eigenvalues not converged
     c_bands:  1 eigenvalues not converged
     c_bands:  1 eigenvalues not converged
     c_bands:  1 eigenvalues not converged
     c_bands:  1 eigenvalues not converged
     c_bands:  2 eigenvalues not converged
     c_bands:  1 eigenvalues not converged
     c_bands:  1 eigenvalues not converged
     c_bands:  1 eigenvalues not converged
     c_bands:  1 eigenvalues not converged
     c_bands:  1 eigenvalues not converged
     c_bands:  1 eigenvalues not converged
     c_bands:  1 eigenvalues not converged
     c_bands:  1 eigenvalues not converged
     c_bands:  1 eigenvalues not converged
     c_bands:  1 eigenvalues not converged
     ethr =  1.00E-06,  avg # of iterations = 17.4

     total cpu time spent up to now is       75.0 secs

     total energy              =     -26.12291611 Ry
     estimated scf accuracy    <       0.18037465 Ry

     iteration #  2     ecut=    80.00 Ry     beta= 0.70
     Davidson diagonalization with overlap
     ethr =  2.00E-03,  avg # of iterations =  2.1

     total cpu time spent up to now is       76.4 secs

     total energy              =     -26.16682439 Ry
     estimated scf accuracy    <       0.01548590 Ry

     iteration #  3     ecut=    80.00 Ry     beta= 0.70
     Davidson diagonalization with overlap
     ethr =  1.72E-04,  avg # of iterations =  2.1

     total cpu time spent up to now is       77.8 secs

     total energy              =     -26.16928614 Ry
     estimated scf accuracy    <       0.00014469 Ry

     iteration #  4     ecut=    80.00 Ry     beta= 0.70
     Davidson diagonalization with overlap
     c_bands:  1 eigenvalues not converged
     ethr =  1.61E-06,  avg # of iterations =  5.8

     total cpu time spent up to now is       78.7 secs

     total energy              =     -26.16933954 Ry
     estimated scf accuracy    <       0.00001759 Ry

     iteration #  5     ecut=    80.00 Ry     beta= 0.70
     Davidson diagonalization with overlap
     ethr =  1.95E-07,  avg # of iterations =  1.7

     total cpu time spent up to now is       79.9 secs

     total energy              =     -26.16934197 Ry
     estimated scf accuracy    <       0.00000031 Ry

     iteration #  6     ecut=    80.00 Ry     beta= 0.70
     Davidson diagonalization with overlap
     ethr =  3.44E-09,  avg # of iterations =  3.1

     total cpu time spent up to now is       81.4 secs

     total energy              =     -26.16934213 Ry
     estimated scf accuracy    <       0.00000003 Ry

     iteration #  7     ecut=    80.00 Ry     beta= 0.70
     Davidson diagonalization with overlap
     ethr =  2.96E-10,  avg # of iterations =  1.9

     total cpu time spent up to now is       83.0 secs

     End of self-consistent calculation

          k = 0.0000 0.0000 0.0000 (  2137 PWs)   bands (ev):

   -39.3714  -5.7885   3.2935   6.7816   6.7816  10.7190  13.1854  13.1854
    16.3752

          k = 0.0000-0.0000 0.1113 (  2143 PWs)   bands (ev):

   -39.3710  -5.7175   2.7526   6.8125   6.8125  11.6563  13.3016  13.3016
    16.2218

          k = 0.0000-0.0000 0.2227 (  2119 PWs)   bands (ev):

   -39.3701  -5.5306   1.6961   6.8887   6.8887  13.6146  13.6146  13.8943
    15.9540

          k = 0.0000-0.0000 0.3340 (  2124 PWs)   bands (ev):

   -39.3693  -5.3158   0.8145   6.9672   6.9672  13.9928  13.9928  15.7514
    16.6572

          k =-0.0000 0.0000-0.4453 (  2130 PWs)   bands (ev):

   -39.3689  -5.2159   0.4751   7.0005   7.0005  14.1783  14.1783  15.6779
    17.9059

          k = 0.0000 0.1497-0.0000 (  2150 PWs)   bands (ev):

   -39.3685  -5.5354   3.6104   5.5570   6.1493  10.6477  13.6528  14.3716
    16.3194

          k = 0.0000 0.1497 0.1113 (  2150 PWs)   bands (ev):

   -39.3681  -5.4630   3.0452   5.6117   6.1889  11.5468  13.7695  14.4758
    15.6937

          k = 0.0000 0.1497 0.2227 (  2146 PWs)   bands (ev):

   -39.3673  -5.2721   1.9593   5.7366   6.2871  13.2796  14.4356  14.7639
    14.9434

          k = 0.0000 0.1497 0.3340 (  2141 PWs)   bands (ev):

   -39.3664  -5.0522   1.0609   5.8645   6.3892  13.8765  14.3486  15.1364
    16.7882

          k = 0.0000 0.1497-0.4453 (  2142 PWs)   bands (ev):

   -39.3661  -4.9497   0.7158   5.9194   6.4328  14.0140  14.1405  15.3373
    18.4610

          k = 0.0000 0.2993-0.0000 (  2158 PWs)   bands (ev):

   -39.3615  -4.7790   3.0974   4.5459   5.0686  10.8284  13.7509  14.0611
    16.9673

          k = 0.0000 0.2993 0.1113 (  2160 PWs)   bands (ev):

   -39.3611  -4.7023   3.1126   3.9841   5.1173  11.6886  13.2332  14.1133
    17.0077

          k = 0.0000 0.2993 0.2227 (  2158 PWs)   bands (ev):

   -39.3603  -4.4999   2.6436   3.4612   5.2392  12.2210  13.0746  14.9469
    17.0833

          k = 0.0000 0.2993 0.3340 (  2153 PWs)   bands (ev):

   -39.3595  -4.2653   1.7725   3.5590   5.3678  11.4237  13.4776  17.0551
    17.1412

          k = 0.0000 0.2993-0.4453 (  2142 PWs)   bands (ev):

   -39.3592  -4.1554   1.4227   3.6214   5.4232  11.1270  13.5398  16.9620
    18.0600

          k = 0.0000 0.4490-0.0000 (  2166 PWs)   bands (ev):

   -39.3545  -3.5393   0.5955   4.2808   6.0156  11.3730  11.4142  13.1727
    17.0937

          k = 0.0000 0.4490 0.1113 (  2161 PWs)   bands (ev):

   -39.3542  -3.4548   0.6542   4.3338   5.3102  10.6695  12.1412  13.7723
    17.6965

          k = 0.0000 0.4490 0.2227 (  2159 PWs)   bands (ev):

   -39.3534  -3.2314   0.8146   4.0237   4.4670   9.5456  12.9425  15.4266
    17.2940

          k = 0.0000 0.4490 0.3340 (  2162 PWs)   bands (ev):

   -39.3526  -2.9714   1.0286   2.9422   4.6083   8.7219  13.1064  16.3106
    17.7465

          k = 0.0000 0.4490-0.4453 (  2164 PWs)   bands (ev):

   -39.3523  -2.8491   1.1611   2.4857   4.6696   8.4227  13.1204  15.9512
    18.5663

          k =-0.0000-0.5987 0.0000 (  2186 PWs)   bands (ev):

   -39.3516  -2.2455  -1.1465   4.0031   7.2627   9.7149  12.1662  12.3060
    16.8363

          k =-0.0000-0.5987 0.1113 (  2172 PWs)   bands (ev):

   -39.3513  -2.1299  -1.1126   4.0574   6.4095   9.1023  12.5411  13.4510
    17.3331

          k =-0.0000-0.5987 0.2227 (  2164 PWs)   bands (ev):

   -39.3505  -1.8124  -1.0273   4.1938   4.9275   8.1102  12.8911  15.7806
    17.0406

          k =-0.0000-0.5987 0.3340 (  2154 PWs)   bands (ev):

   -39.3498  -1.4120  -0.9368   3.7121   4.3388   7.3790  12.9670  15.9873
    18.2588

          k =-0.0000-0.5987-0.4453 (  2172 PWs)   bands (ev):

   -39.3495  -1.2054  -0.8976   3.2221   4.4018   7.1155  12.9650  15.6109
    18.6710

          k = 0.1296 0.2245-0.0000 (  2154 PWs)   bands (ev):

   -39.3635  -5.0305   4.0991   4.2374   4.8965  10.8787  14.6392  14.8295
    15.1650

          k = 0.1296 0.2245 0.1113 (  2161 PWs)   bands (ev):

   -39.3632  -4.9553   3.6027   4.1637   4.9923  11.7798  14.1543  14.6883
    15.3430

          k = 0.1296 0.2245 0.2227 (  2149 PWs)   bands (ev):

   -39.3624  -4.7567   2.4685   4.3294   5.1142  13.1019  13.5980  15.0632
    15.6573

          k = 0.1296 0.2245 0.3340 (  2157 PWs)   bands (ev):

   -39.3616  -4.5270   1.5461   4.5113   5.2194  12.2907  14.3068  16.0404
    16.5846

          k = 0.1296 0.2245-0.4453 (  2158 PWs)   bands (ev):

   -39.3612  -4.4194   1.1925   4.5923   5.2627  11.9877  14.3880  16.2413
    16.6946

          k = 0.1296 0.3742-0.0000 (  2161 PWs)   bands (ev):

   -39.3565  -4.0289   1.8795   3.7112   5.4534  11.4243  12.5857  14.4912
    16.7348

          k = 0.1296 0.3742 0.1113 (  2164 PWs)   bands (ev):

   -39.3562  -3.9482   1.9435   3.7206   4.8456  11.8130  12.3552  14.7306
    17.1457

          k = 0.1296 0.3742 0.2227 (  2167 PWs)   bands (ev):

   -39.3554  -3.7348   2.1032   3.4219   4.0685  10.5953  13.9699  15.2309
    16.8016

          k = 0.1296 0.3742 0.3340 (  2160 PWs)   bands (ev):

   -39.3547  -3.4864   2.2311   2.6272   4.0682   9.6566  14.4039  15.5845
    17.8551

          k = 0.1296 0.3742-0.4453 (  2164 PWs)   bands (ev):

   -39.3544  -3.3695   2.1119   2.4699   4.1080   9.3046  14.4366  15.4165
    18.1212

          k = 0.1296 0.5238-0.0000 (  2169 PWs)   bands (ev):

   -39.3516  -2.5973  -0.3568   3.1449   7.0477  10.2897  12.2051  13.5428
    16.5956

          k = 0.1296 0.5238 0.1113 (  2167 PWs)   bands (ev):

   -39.3513  -2.5035  -0.2968   3.1903   6.2626   9.5940  13.1691  14.0876
    16.4094

          k = 0.1296 0.5238 0.2227 (  2163 PWs)   bands (ev):

   -39.3505  -2.2549  -0.1337   3.3118   4.8680   8.4289  14.0772  15.4410
    16.0982

          k = 0.1296 0.5238 0.3340 (  2163 PWs)   bands (ev):

   -39.3498  -1.9658   0.0743   3.4442   3.7297   7.5229  14.2031  15.0435
    18.2872

          k = 0.1296 0.5238-0.4453 (  2170 PWs)   bands (ev):

   -39.3495  -1.8302   0.1868   3.2245   3.5553   7.1790  14.2207  14.8085
    19.6668

          k = 0.2592 0.4490-0.0000 (  2166 PWs)   bands (ev):

   -39.3516  -2.8067   0.7011   1.9442   6.8791  10.9250  12.2861  14.9033
    15.9198

          k = 0.2592 0.4490 0.1113 (  2162 PWs)   bands (ev):

   -39.3513  -2.7189   0.7943   1.9593   6.1462  10.1008  13.2712  15.6300
    15.8075

          k = 0.2592 0.4490 0.2227 (  2162 PWs)   bands (ev):

   -39.3505  -2.4861   1.0419   2.0091   4.8218   8.7287  14.6363  15.7064
    17.0378

          k = 0.2592 0.4490 0.3340 (  2175 PWs)   bands (ev):

   -39.3498  -2.2141   1.3328   2.1073   3.7068   7.6561  14.3865  16.3720
    17.8880

          k = 0.2592 0.4490-0.4453 (  2168 PWs)   bands (ev):

   -39.3495  -2.0856   1.4711   2.1983   3.2268   7.2461  14.2417  16.3662
    18.0964

          k = 0.2592 0.5987-0.0000 (  2172 PWs)   bands (ev):

   -39.3495  -1.4973  -0.6963   1.3867   8.2046   9.5297  13.0025  14.0049
    15.1161

          k = 0.2592 0.5987 0.1113 (  2165 PWs)   bands (ev):

   -39.3492  -1.3873  -0.6238   1.4086   7.3508   8.7397  14.1236  14.6930
    15.1314

          k = 0.2592 0.5987 0.2227 (  2170 PWs)   bands (ev):

   -39.3485  -1.0877  -0.4410   1.4801   5.8879   7.3810  14.3518  16.3465
    16.4406

          k = 0.2592 0.5987 0.3340 (  2166 PWs)   bands (ev):

   -39.3478  -0.7171  -0.2480   1.5951   4.7062   6.2945  13.9948  16.7946
    18.6212

          k = 0.2592 0.5987-0.4453 (  2162 PWs)   bands (ev):

   -39.3475  -0.5306  -0.1659   1.6643   4.2377   5.8713  13.8652  16.8017
    20.3688

     the Fermi energy is     5.2789 ev

!    total energy              =     -26.16934213 Ry
     estimated scf accuracy    <          3.1E-10 Ry

     The total energy is the sum of the following terms:
     one-electron contribution =      -2.77594188 Ry
     hartree contribution      =       3.78538430 Ry
     xc contribution           =      -8.22558027 Ry
     ewald contribution        =     -18.95320427 Ry

     convergence has been achieved in   7 iterations

     Forces acting on atoms (cartesian axes, Ry/au):

     atom    1 type  1   force =    -0.00000000   -0.00000000    0.00000000
     atom    2 type  2   force =     0.00000000    0.00000000   -0.00000000
     atom    3 type  2   force =     0.00000000    0.00000000   -0.00000000

     Total force =     0.000000     Total SCF correction =     0.000000


     Computing stress (Cartesian axis) and pressure

          total   stress  (Ry/bohr**3)                   (kbar)     P=       -0.21
  -0.00000158  -0.00000000   0.00000000           -0.23       -0.00        0.00
  -0.00000000  -0.00000158   0.00000000           -0.00       -0.23        0.00
   0.00000000   0.00000000  -0.00000111            0.00        0.00       -0.16


     Writing all to output data dir ./tmp/LiB2.save/ :
     XML data file, charge density, pseudopotentials, collected wavefunctions

     init_run     :      2.76s CPU      2.93s WALL (       2 calls)
     electrons    :     68.12s CPU     68.02s WALL (       9 calls)
     update_pot   :      0.23s CPU      0.23s WALL (       7 calls)
     forces       :      3.28s CPU      3.41s WALL (       9 calls)
     stress       :      9.20s CPU      9.51s WALL (       9 calls)

     Called by init_run:
     wfcinit      :      1.54s CPU      1.61s WALL (       2 calls)
     potinit      :      0.15s CPU      0.16s WALL (       2 calls)
     hinit0       :      1.02s CPU      1.10s WALL (       2 calls)

     Called by electrons:
     c_bands      :     55.99s CPU     55.40s WALL (      38 calls)
     sum_band     :     11.42s CPU     11.83s WALL (      38 calls)
     v_of_rho     :      0.80s CPU      0.85s WALL (      42 calls)
     mix_rho      :      0.07s CPU      0.07s WALL (      38 calls)

     Called by c_bands:
     init_us_2    :      2.10s CPU      2.18s WALL (    4800 calls)
     init_us_2:cp :      2.08s CPU      2.17s WALL (    4800 calls)
     cegterg      :     53.28s CPU     52.57s WALL (    1900 calls)

     Called by *egterg:
     cdiaghg      :      0.72s CPU      0.75s WALL (    7187 calls)
     h_psi        :     43.17s CPU     43.97s WALL (    7887 calls)
     g_psi        :      0.26s CPU      0.27s WALL (    5887 calls)

     Called by h_psi:
     h_psi:calbec :      4.54s CPU      4.71s WALL (    7887 calls)
     vloc_psi     :     34.75s CPU     36.18s WALL (    7887 calls)
     add_vuspsi   :      3.58s CPU      2.78s WALL (    7887 calls)

     General routines
     calbec       :      7.15s CPU      7.42s WALL (   10137 calls)
     fft          :      0.80s CPU      0.84s WALL (     648 calls)
     ffts         :      0.02s CPU      0.02s WALL (      38 calls)
     fftw         :     33.50s CPU     34.90s WALL (  113522 calls)


     PWSCF        :   1m23.76s CPU   1m24.40s WALL


   This run was terminated on:  22:13:16  14Dec2024            

=------------------------------------------------------------------------------=
   JOB DONE.
=------------------------------------------------------------------------------=
