
     Program PWSCF v.7.3 starts on 15Dec2024 at 22:21:49 

     This program is part of the open-source Quantum ESPRESSO suite
     for quantum simulation of materials; please cite
         "P. Giannozzi et al., J. Phys.:Condens. Matter 21 395502 (2009);
         "P. Giannozzi et al., J. Phys.:Condens. Matter 29 465901 (2017);
         "P. Giannozzi et al., J. Chem. Phys. 152 154105 (2020);
          URL http://www.quantum-espresso.org", 
     in publications or presentations arising from this work. More details at
     http://www.quantum-espresso.org/quote

     Serial version
     5181 MiB available memory on the printing compute node when the environment starts

     Waiting for input...
     Reading input from standard input
     Message from routine read_cards :
     DEPRECATED: no units specified in ATOMIC_POSITIONS card
     Message from routine read_cards :
     ATOMIC_POSITIONS: units set to alat

     Current dimensions of program PWSCF are:
     Max number of different atomic species (ntypx) = 10
     Max number of k-points (npk) =  40000
     Max angular momentum in pseudopotentials (lmaxx) =  4
     Message from routine iosys:
     BEWARE:  force calculation with tetrahedra (not recommanded)
     Message from routine iosys:
     BEWARE: stress calculation with tetrahedra (not recommanded)
     [opt_tetra]  Optimized tetrahedron method is used.


     G-vector sticks info
     --------------------
     sticks:   dense  smooth     PW     G-vecs:    dense   smooth      PW
     Sum         379     379    121                 4957     4957     941

     Using Slab Decomposition



     bravais-lattice index     =            2
     lattice parameter (alat)  =       6.7980  a.u.
     unit-cell volume          =      78.5387 (a.u.)^3
     number of atoms/cell      =            1
     number of atomic types    =            1
     number of electrons       =         4.00
     number of Kohn-Sham states=            6
     kinetic-energy cutoff     =      60.0000  Ry
     charge density cutoff     =     240.0000  Ry
     scf convergence threshold =      1.0E-06
     mixing beta               =       0.7000
     number of iterations used =            8  plain     mixing
     energy convergence thresh.=      1.0E-04
     force convergence thresh. =      1.0E-03
     press convergence thresh. =      5.0E-01
     Exchange-correlation= SLA  PW   NOGX NOGC
                           (   1   4   0   0   0   0   0)
     nstep                     =           50


     celldm(1)=   6.798000  celldm(2)=   0.000000  celldm(3)=   0.000000
     celldm(4)=   0.000000  celldm(5)=   0.000000  celldm(6)=   0.000000

     crystal axes: (cart. coord. in units of alat)
               a(1) = (  -0.500000   0.000000   0.500000 )  
               a(2) = (   0.000000   0.500000   0.500000 )  
               a(3) = (  -0.500000   0.500000   0.000000 )  

     reciprocal axes: (cart. coord. in units 2 pi/alat)
               b(1) = ( -1.000000 -1.000000  1.000000 )  
               b(2) = (  1.000000  1.000000  1.000000 )  
               b(3) = ( -1.000000  1.000000 -1.000000 )  


     PseudoPot. # 1 for Si read from file:
     ./PSEUDO/Si.LDA.upf
     MD5 check sum: 9e2d726316af3d4752eea8ab0afbb951
     Pseudo is Norm-conserving + core correction, Zval =  4.0
     Generated using ONCVPSP code by D. R. Hamann
     Using radial grid of 1510 points,  6 beta functions with: 
                l(1) =   0
                l(2) =   0
                l(3) =   1
                l(4) =   1
                l(5) =   2
                l(6) =   2

     atomic species   valence    mass     pseudopotential
     Si                4.00    28.76000     Si( 1.00)

     48 Sym. Ops., with inversion, found



   Cartesian axes

     site n.     atom                  positions (alat units)
         1        Si     tau(   1) = (   0.0000000   0.0000000   0.0000000  )

     number of k points=    16 (tetrahedron method)
                       cart. coord. in units 2pi/alat
        k(    1) = (   0.0000000   0.0000000   0.0000000), wk =   0.0092593
        k(    2) = (  -0.1666667   0.1666667  -0.1666667), wk =   0.0740741
        k(    3) = (  -0.3333333   0.3333333  -0.3333333), wk =   0.0740741
        k(    4) = (   0.5000000  -0.5000000   0.5000000), wk =   0.0370370
        k(    5) = (   0.0000000   0.3333333   0.0000000), wk =   0.0555556
        k(    6) = (  -0.1666667   0.5000000  -0.1666667), wk =   0.2222222
        k(    7) = (   0.6666667  -0.3333333   0.6666667), wk =   0.2222222
        k(    8) = (   0.5000000  -0.1666667   0.5000000), wk =   0.2222222
        k(    9) = (   0.3333333   0.0000000   0.3333333), wk =   0.1111111
        k(   10) = (   0.0000000   0.6666667   0.0000000), wk =   0.0555556
        k(   11) = (   0.8333333  -0.1666667   0.8333333), wk =   0.2222222
        k(   12) = (   0.6666667   0.0000000   0.6666667), wk =   0.1111111
        k(   13) = (   0.0000000  -1.0000000   0.0000000), wk =   0.0277778
        k(   14) = (   0.6666667  -0.3333333   1.0000000), wk =   0.2222222
        k(   15) = (   0.5000000  -0.1666667   0.8333333), wk =   0.2222222
        k(   16) = (  -0.3333333  -1.0000000   0.0000000), wk =   0.1111111

     Dense  grid:     4957 G-vectors     FFT dimensions: (  24,  24,  24)

     Estimated max dynamical RAM per process >       6.86 MB

     Initial potential from superposition of free atoms

     starting charge       3.9994, renormalised to       4.0000
     Starting wfcs are    4 randomized atomic wfcs +    2 random wfcs

     total cpu time spent up to now is        0.6 secs

     Self-consistent Calculation

     iteration #  1     ecut=    60.00 Ry     beta= 0.70
     Davidson diagonalization with overlap
     ethr =  1.00E-02,  avg # of iterations =  6.1

     Threshold (ethr) on eigenvalues was too large:
     Diagonalizing with lowered threshold

     Davidson diagonalization with overlap
     ethr =  1.52E-04,  avg # of iterations =  3.0

     total cpu time spent up to now is        0.9 secs

     total energy              =      -8.45604341 Ry
     estimated scf accuracy    <       0.00593401 Ry

     iteration #  2     ecut=    60.00 Ry     beta= 0.70
     Davidson diagonalization with overlap
     ethr =  1.48E-04,  avg # of iterations =  1.0

     total cpu time spent up to now is        1.0 secs

     total energy              =      -8.45607544 Ry
     estimated scf accuracy    <       0.00031791 Ry

     iteration #  3     ecut=    60.00 Ry     beta= 0.70
     Davidson diagonalization with overlap
     ethr =  7.95E-06,  avg # of iterations =  2.4

     total cpu time spent up to now is        1.3 secs

     total energy              =      -8.45610004 Ry
     estimated scf accuracy    <       0.00000112 Ry

     iteration #  4     ecut=    60.00 Ry     beta= 0.70
     Davidson diagonalization with overlap
     ethr =  2.81E-08,  avg # of iterations =  3.4

     total cpu time spent up to now is        1.4 secs

     End of self-consistent calculation

          k = 0.0000 0.0000 0.0000 (   609 PWs)   bands (ev):

    -2.7981  26.5196  26.5196  27.5592  27.5592  27.5592

          k =-0.1667 0.1667-0.1667 (   610 PWs)   bands (ev):

    -1.8671  19.1328  24.6913  24.6913  29.0639  29.9915

          k =-0.3333 0.3333-0.3333 (   613 PWs)   bands (ev):

     0.8982  11.5755  23.9270  23.9270  27.2005  27.2005

          k = 0.5000-0.5000 0.5000 (   610 PWs)   bands (ev):

     5.3745   5.4664  24.3533  24.3533  25.2592  25.2592

          k = 0.0000 0.3333 0.0000 (   597 PWs)   bands (ev):

    -1.5578  21.8304  21.8304  22.6107  25.3004  26.8198

          k =-0.1667 0.5000-0.1667 (   608 PWs)   bands (ev):

     0.5925  14.6699  20.5262  21.6021  22.9210  28.6290

          k = 0.6667-0.3333 0.6667 (   614 PWs)   bands (ev):

     4.5191   8.0778  18.5869  20.7972  23.3695  30.3470

          k = 0.5000-0.1667 0.5000 (   614 PWs)   bands (ev):

     3.0206  10.0960  17.2107  22.6245  25.3977  29.1142

          k = 0.3333 0.0000 0.3333 (   616 PWs)   bands (ev):

    -0.3258  16.5358  18.1137  25.8397  28.8034  28.9169

          k = 0.0000 0.6667 0.0000 (   624 PWs)   bands (ev):

     2.1102  16.3785  18.6778  18.6778  19.0347  23.1744

          k = 0.8333-0.1667 0.8333 (   623 PWs)   bands (ev):

     5.3855  12.3387  12.7248  18.4174  20.6887  26.7485

          k = 0.6667 0.0000 0.6667 (   614 PWs)   bands (ev):

     6.8924   9.6378  11.4224  19.7394  22.3351  33.6050

          k = 0.0000-1.0000 0.0000 (   636 PWs)   bands (ev):

     7.3368   9.0202  17.6247  17.6247  17.8051  22.1125

          k = 0.6667-0.3333 1.0000 (   624 PWs)   bands (ev):

     3.3183  13.0949  14.8324  17.4953  26.8050  28.4557

          k = 0.5000-0.1667 0.8333 (   620 PWs)   bands (ev):

     7.6745   7.8294  14.8408  15.1124  28.0481  28.8752

          k =-0.3333-1.0000 0.0000 (   618 PWs)   bands (ev):

     8.4870  10.2144  11.9446  13.7229  25.7215  27.6873

     the Fermi energy is    13.9039 ev

!    total energy              =      -8.45610078 Ry
     estimated scf accuracy    <          9.7E-09 Ry

     The total energy is the sum of the following terms:
     one-electron contribution =       5.62141550 Ry
     hartree contribution      =       0.01762534 Ry
     xc contribution           =      -3.30405701 Ry
     ewald contribution        =     -10.79108461 Ry

     convergence has been achieved in   4 iterations

     Forces acting on atoms (cartesian axes, Ry/au):

     atom    1 type  1   force =     0.00000000    0.00000000    0.00000000

     Total force =     0.000000     Total SCF correction =     0.000000


     Computing stress (Cartesian axis) and pressure

          total   stress  (Ry/bohr**3)                   (kbar)     P=      200.49
   0.00136290   0.00000000   0.00000000          200.49        0.00        0.00
   0.00000000   0.00136290  -0.00000000            0.00      200.49       -0.00
   0.00000000  -0.00000000   0.00136290            0.00       -0.00      200.49


     BFGS Geometry Optimization
     Energy error            =      0.0E+00 Ry
     Gradient error          =      0.0E+00 Ry/Bohr
     Cell gradient error     =      2.0E+02 kbar

     number of scf cycles    =   1
     number of bfgs steps    =   0

     enthalpy           new  =      -8.2425427918 Ry

     new trust radius        =       0.0600965883 bohr
     new conv_thr            =       0.0000010000 Ry

     new unit-cell volume =     70.81765 a.u.^3 (    10.49409 Ang^3 )
     density =      4.55086 g/cm^3

CELL_PARAMETERS (alat=  6.79800000)
  -0.483046941  -0.000000000   0.483046941
   0.000000000   0.483046941   0.483046941
  -0.483046941   0.483046941  -0.000000000

ATOMIC_POSITIONS (alat)
Si               0.0000000000        0.0000000000        0.0000000000



     Writing config-only to output data dir ./tmp/vcrelax.save/ :
     XML data file
     NEW-OLD atomic charge density approx. for the potential

     total cpu time spent up to now is        1.5 secs

     Self-consistent Calculation

     iteration #  1     ecut=    60.00 Ry     beta= 0.70
     Davidson diagonalization with overlap
     ethr =  1.00E-06,  avg # of iterations =  6.3

     total cpu time spent up to now is        1.8 secs

     total energy              =      -8.44056599 Ry
     estimated scf accuracy    <       0.00002831 Ry

     iteration #  2     ecut=    60.00 Ry     beta= 0.70
     Davidson diagonalization with overlap
     ethr =  7.08E-07,  avg # of iterations =  1.0

     total cpu time spent up to now is        2.0 secs

     total energy              =      -8.44056604 Ry
     estimated scf accuracy    <       0.00000170 Ry

     iteration #  3     ecut=    60.00 Ry     beta= 0.70
     Davidson diagonalization with overlap
     ethr =  4.26E-08,  avg # of iterations =  1.5

     total cpu time spent up to now is        2.1 secs

     End of self-consistent calculation

          k = 0.0000 0.0000 0.0000 (   609 PWs)   bands (ev):

    -2.1928  28.6962  28.6962  30.8488  30.8488  30.8488

          k =-0.1725 0.1725-0.1725 (   610 PWs)   bands (ev):

    -1.1974  21.1529  27.1648  27.1648  31.9618  33.0655

          k =-0.3450 0.3450-0.3450 (   613 PWs)   bands (ev):

     1.7541  13.1283  26.4429  26.4429  29.7704  29.7704

          k = 0.5175-0.5175 0.5175 (   610 PWs)   bands (ev):

     6.3386   6.8181  27.2852  27.2852  27.3255  27.3255

          k = 0.0000 0.3450 0.0000 (   597 PWs)   bands (ev):

    -0.8669  24.1635  24.1635  24.4612  28.5727  29.0525

          k =-0.1725 0.5175-0.1725 (   608 PWs)   bands (ev):

     1.4280  16.3966  22.8050  23.8753  25.1950  31.5231

          k = 0.6901-0.3450 0.6901 (   614 PWs)   bands (ev):

     5.6002   9.4158  20.6678  23.1030  25.7372  33.1416

          k = 0.5175-0.1725 0.5175 (   614 PWs)   bands (ev):

     4.0129  11.5441  19.2288  25.0597  27.9060  31.7842

          k = 0.3450 0.0000 0.3450 (   616 PWs)   bands (ev):

     0.4486  18.2764  20.3048  28.5985  31.2749  31.5304

          k = 0.0000 0.6901 0.0000 (   624 PWs)   bands (ev):

     3.0441  18.2690  20.6153  20.8618  20.8618  26.0039

          k = 0.8626-0.1725 0.8626 (   623 PWs)   bands (ev):

     6.5173  13.7778  14.5538  20.5921  22.8108  29.5593

          k = 0.6901 0.0000 0.6901 (   614 PWs)   bands (ev):

     8.1113  10.9431  13.1846  21.9899  24.6292  36.7427

          k = 0.0000-1.0351 0.0000 (   636 PWs)   bands (ev):

     8.5060  10.5430  19.2944  19.7589  19.7589  24.8758

          k = 0.6901-0.3450 1.0351 (   624 PWs)   bands (ev):

     4.3291  14.6121  16.7577  19.6005  29.2114  31.5066

          k = 0.5175-0.1725 0.8626 (   620 PWs)   bands (ev):

     8.7909   9.2830  16.4055  17.3375  30.8598  31.4689

          k =-0.3450-1.0351 0.0000 (   618 PWs)   bands (ev):

     9.7235  11.7552  13.3887  15.7799  28.0680  30.6719

     the Fermi energy is    15.6521 ev

!    total energy              =      -8.44056615 Ry
     estimated scf accuracy    <          4.3E-09 Ry

     The total energy is the sum of the following terms:
     one-electron contribution =       6.10257988 Ry
     hartree contribution      =       0.01658745 Ry
     xc contribution           =      -3.38992399 Ry
     ewald contribution        =     -11.16980950 Ry

     convergence has been achieved in   3 iterations

     Forces acting on atoms (cartesian axes, Ry/au):

     atom    1 type  1   force =     0.00000000    0.00000000    0.00000000

     Total force =     0.000000     Total SCF correction =     0.000000


     Computing stress (Cartesian axis) and pressure

          total   stress  (Ry/bohr**3)                   (kbar)     P=      412.15
   0.00280177   0.00000000   0.00000000          412.15        0.00        0.00
   0.00000000   0.00280177  -0.00000000            0.00      412.15       -0.00
   0.00000000  -0.00000000   0.00280177            0.00       -0.00      412.15

     Energy error            =      5.5E-03 Ry
     Gradient error          =      0.0E+00 Ry/Bohr
     Cell gradient error     =      1.2E+01 kbar

     number of scf cycles    =   2
     number of bfgs steps    =   1

     enthalpy           old  =      -8.2425427918 Ry
     enthalpy           new  =      -8.2480027257 Ry

     CASE: enthalpy          _new < enthalpy          _old

     new trust radius        =       0.0031781053 bohr
     new conv_thr            =       0.0000000100 Ry

     new unit-cell volume =     71.21958 a.u.^3 (    10.55365 Ang^3 )
     density =      4.52517 g/cm^3

CELL_PARAMETERS (alat=  6.79800000)
  -0.483959071  -0.000000000   0.483959071
   0.000000000   0.483959071   0.483959071
  -0.483959071   0.483959071  -0.000000000

ATOMIC_POSITIONS (alat)
Si               0.0000000000        0.0000000000        0.0000000000



     Writing config-only to output data dir ./tmp/vcrelax.save/ :
     XML data file
     NEW-OLD atomic charge density approx. for the potential

     total cpu time spent up to now is        2.2 secs

     Self-consistent Calculation

     iteration #  1     ecut=    60.00 Ry     beta= 0.70
     Davidson diagonalization with overlap
     ethr =  1.00E-06,  avg # of iterations =  2.4

     Threshold (ethr) on eigenvalues was too large:
     Diagonalizing with lowered threshold

     Davidson diagonalization with overlap
     ethr =  1.13E-09,  avg # of iterations =  3.8

     total cpu time spent up to now is        2.5 secs

     total energy              =      -8.44167280 Ry
     estimated scf accuracy    <       0.00000007 Ry

     iteration #  2     ecut=    60.00 Ry     beta= 0.70
     Davidson diagonalization with overlap
     ethr =  1.81E-09,  avg # of iterations =  1.0

     total cpu time spent up to now is        2.6 secs

     End of self-consistent calculation

          k = 0.0000 0.0000 0.0000 (   609 PWs)   bands (ev):

    -2.2276  28.5732  28.5732  30.6618  30.6619  30.6619

          k =-0.1722 0.1722-0.1722 (   610 PWs)   bands (ev):

    -1.2358  21.0394  27.0268  27.0268  31.7976  32.8893

          k =-0.3444 0.3444-0.3444 (   613 PWs)   bands (ev):

     1.7053  13.0405  26.3031  26.3031  29.6220  29.6220

          k = 0.5166-0.5166 0.5166 (   610 PWs)   bands (ev):

     6.2835   6.7416  27.1184  27.1184  27.2087  27.2087

          k = 0.0000 0.3444 0.0000 (   597 PWs)   bands (ev):

    -0.9066  24.0320  24.0320  24.3567  28.3916  28.9207

          k =-0.1722 0.5166-0.1722 (   608 PWs)   bands (ev):

     1.3804  16.2993  22.6761  23.7532  25.0602  31.3570

          k = 0.6888-0.3444 0.6888 (   614 PWs)   bands (ev):

     5.5392   9.3396  20.5517  22.9728  25.6007  32.9824

          k = 0.5166-0.1722 0.5166 (   614 PWs)   bands (ev):

     3.9566  11.4621  19.1151  24.9229  27.7623  31.6320

          k = 0.3444-0.0000 0.3444 (   616 PWs)   bands (ev):

     0.4043  18.1781  20.1814  28.4454  31.1416  31.3751

          k = 0.0000 0.6888 0.0000 (   624 PWs)   bands (ev):

     2.9909  18.1641  20.5261  20.7378  20.7378  25.8398

          k = 0.8610-0.1722 0.8610 (   623 PWs)   bands (ev):

     6.4532  13.6971  14.4505  20.4686  22.6892  29.3981

          k = 0.6888-0.0000 0.6888 (   614 PWs)   bands (ev):

     8.0428  10.8688  13.0850  21.8625  24.4977  36.5644

          k = 0.0000-1.0331 0.0000 (   636 PWs)   bands (ev):

     8.4392  10.4582  19.2103  19.6375  19.6375  24.7162

          k = 0.6888-0.3444 1.0331 (   624 PWs)   bands (ev):

     4.2717  14.5263  16.6508  19.4792  29.0751  31.3320

          k = 0.5166-0.1722 0.8610 (   620 PWs)   bands (ev):

     8.7274   9.2012  16.3172  17.2104  30.7002  31.3218

          k =-0.3444-1.0331 0.0000 (   618 PWs)   bands (ev):

     9.6530  11.6708  13.3068  15.6604  27.9350  30.5013

     the Fermi energy is    15.5538 ev

!    total energy              =      -8.44167280 Ry
     estimated scf accuracy    <          4.4E-09 Ry

     The total energy is the sum of the following terms:
     one-electron contribution =       6.07560091 Ry
     hartree contribution      =       0.01654717 Ry
     xc contribution           =      -3.38506341 Ry
     ewald contribution        =     -11.14875747 Ry

     convergence has been achieved in   2 iterations

     Forces acting on atoms (cartesian axes, Ry/au):

     atom    1 type  1   force =     0.00000000    0.00000000    0.00000000

     Total force =     0.000000     Total SCF correction =     0.000000


     Computing stress (Cartesian axis) and pressure

          total   stress  (Ry/bohr**3)                   (kbar)     P=      398.04
   0.00270585  -0.00000000   0.00000000          398.04       -0.00        0.00
  -0.00000000   0.00270585  -0.00000000           -0.00      398.04       -0.00
   0.00000000  -0.00000000   0.00270585            0.00       -0.00      398.04

     Energy error            =      1.4E-05 Ry
     Gradient error          =      0.0E+00 Ry/Bohr
     Cell gradient error     =      2.0E+00 kbar

     number of scf cycles    =   3
     number of bfgs steps    =   2

     enthalpy           old  =      -8.2480027257 Ry
     enthalpy           new  =      -8.2480164628 Ry

     CASE: enthalpy          _new < enthalpy          _old

     new trust radius        =       0.0004423005 bohr
     new conv_thr            =       0.0000000100 Ry

     new unit-cell volume =     71.16360 a.u.^3 (    10.54536 Ang^3 )
     density =      4.52873 g/cm^3

CELL_PARAMETERS (alat=  6.79800000)
  -0.483832248   0.000000000   0.483832248
   0.000000000   0.483832248   0.483832248
  -0.483832248   0.483832248  -0.000000000

ATOMIC_POSITIONS (alat)
Si               0.0000000000        0.0000000000        0.0000000000



     Writing config-only to output data dir ./tmp/vcrelax.save/ :
     XML data file
     NEW-OLD atomic charge density approx. for the potential

     total cpu time spent up to now is        2.7 secs

     Self-consistent Calculation

     iteration #  1     ecut=    60.00 Ry     beta= 0.70
     Davidson diagonalization with overlap
     ethr =  1.00E-06,  avg # of iterations =  1.0

     Threshold (ethr) on eigenvalues was too large:
     Diagonalizing with lowered threshold

     Davidson diagonalization with overlap
     ethr =  2.34E-11,  avg # of iterations =  4.4

     total cpu time spent up to now is        3.1 secs

     End of self-consistent calculation

          k = 0.0000 0.0000 0.0000 (   609 PWs)   bands (ev):

    -2.2228  28.5903  28.5903  30.6879  30.6880  30.6880

          k =-0.1722 0.1722-0.1722 (   610 PWs)   bands (ev):

    -1.2305  21.0551  27.0460  27.0460  31.8204  32.9139

          k =-0.3445 0.3445-0.3445 (   613 PWs)   bands (ev):

     1.7121  13.0527  26.3226  26.3226  29.6426  29.6426

          k = 0.5167-0.5167 0.5167 (   610 PWs)   bands (ev):

     6.2911   6.7523  27.1416  27.1416  27.2250  27.2250

          k = 0.0000 0.3445 0.0000 (   597 PWs)   bands (ev):

    -0.9011  24.0503  24.0503  24.3712  28.4170  28.9389

          k =-0.1722 0.5167-0.1722 (   608 PWs)   bands (ev):

     1.3870  16.3128  22.6941  23.7702  25.0789  31.3801

          k = 0.6889-0.3445 0.6889 (   614 PWs)   bands (ev):

     5.5476   9.3502  20.5678  22.9909  25.6196  33.0045

          k = 0.5167-0.1722 0.5167 (   614 PWs)   bands (ev):

     3.9644  11.4735  19.1309  24.9419  27.7823  31.6532

          k = 0.3445 0.0000 0.3445 (   616 PWs)   bands (ev):

     0.4104  18.1918  20.1986  28.4667  31.1601  31.3967

          k = 0.0000 0.6889 0.0000 (   624 PWs)   bands (ev):

     2.9983  18.1787  20.5384  20.7551  20.7551  25.8626

          k = 0.8612-0.1722 0.8612 (   623 PWs)   bands (ev):

     6.4621  13.7083  14.4649  20.4858  22.7061  29.4206

          k = 0.6889 0.0000 0.6889 (   614 PWs)   bands (ev):

     8.0523  10.8791  13.0989  21.8802  24.5160  36.5893

          k = 0.0000-1.0334 0.0000 (   636 PWs)   bands (ev):

     8.4484  10.4700  19.2219  19.6544  19.6544  24.7384

          k = 0.6889-0.3445 1.0334 (   624 PWs)   bands (ev):

     4.2796  14.5382  16.6657  19.4960  29.0940  31.3564

          k = 0.5167-0.1722 0.8612 (   620 PWs)   bands (ev):

     8.7362   9.2126  16.3294  17.2281  30.7225  31.3423

          k =-0.3445-1.0334 0.0000 (   618 PWs)   bands (ev):

     9.6627  11.6825  13.3182  15.6770  27.9534  30.5250

     the Fermi energy is    15.5675 ev

!    total energy              =      -8.44152099 Ry
     estimated scf accuracy    <          2.0E-09 Ry

     The total energy is the sum of the following terms:
     one-electron contribution =       6.07934131 Ry
     hartree contribution      =       0.01655245 Ry
     xc contribution           =      -3.38573497 Ry
     ewald contribution        =     -11.15167979 Ry

     convergence has been achieved in   1 iterations

     Forces acting on atoms (cartesian axes, Ry/au):

     atom    1 type  1   force =     0.00000000    0.00000000    0.00000000

     Total force =     0.000000     Total SCF correction =     0.000000


     Computing stress (Cartesian axis) and pressure

          total   stress  (Ry/bohr**3)                   (kbar)     P=      399.90
   0.00271848  -0.00000000  -0.00000000          399.90       -0.00       -0.00
  -0.00000000   0.00271848   0.00000000           -0.00      399.90        0.00
  -0.00000000   0.00000000   0.00271848           -0.00        0.00      399.90

     Energy error            =      3.9E-07 Ry
     Gradient error          =      0.0E+00 Ry/Bohr
     Cell gradient error     =      9.8E-02 kbar

     bfgs converged in   4 scf cycles and   3 bfgs steps
     (criteria: energy <  1.0E-04 Ry, force <  1.0E-03 Ry/Bohr, cell <  5.0E-01 kbar)

     End of BFGS Geometry Optimization

     Final enthalpy           =      -8.2480168574 Ry

     File ./tmp/vcrelax.bfgs deleted, as requested
Begin final coordinates
     new unit-cell volume =     71.16360 a.u.^3 (    10.54536 Ang^3 )
     density =      4.52873 g/cm^3

CELL_PARAMETERS (alat=  6.79800000)
  -0.483832248   0.000000000   0.483832248
   0.000000000   0.483832248   0.483832248
  -0.483832248   0.483832248  -0.000000000

ATOMIC_POSITIONS (alat)
Si               0.0000000000        0.0000000000        0.0000000000
End final coordinates



     Writing config-only to output data dir ./tmp/vcrelax.save/ :
     XML data file

     Final scf calculation at the relaxed structure.
     The G-vectors are recalculated for the final unit cell
     Results may differ from those at the preceding step.

     G-vector sticks info
     --------------------
     sticks:   dense  smooth     PW     G-vecs:    dense   smooth      PW
     Sum         361     361    121                 4477     4477     869

     Using Slab Decomposition



     bravais-lattice index     =            2
     lattice parameter (alat)  =       6.7980  a.u.
     unit-cell volume          =      71.1636 (a.u.)^3
     number of atoms/cell      =            1
     number of atomic types    =            1
     number of electrons       =         4.00
     number of Kohn-Sham states=            6
     kinetic-energy cutoff     =      60.0000  Ry
     charge density cutoff     =     240.0000  Ry
     scf convergence threshold =      1.0E-08
     mixing beta               =       0.7000
     number of iterations used =            8  plain     mixing
     press convergence thresh. =      5.0E-01
     Exchange-correlation= SLA  PW   NOGX NOGC
                           (   1   4   0   0   0   0   0)

     celldm(1)=   6.798000  celldm(2)=   0.000000  celldm(3)=   0.000000
     celldm(4)=   0.000000  celldm(5)=   0.000000  celldm(6)=   0.000000

     crystal axes: (cart. coord. in units of alat)
               a(1) = (  -0.483832   0.000000   0.483832 )  
               a(2) = (   0.000000   0.483832   0.483832 )  
               a(3) = (  -0.483832   0.483832  -0.000000 )  

     reciprocal axes: (cart. coord. in units 2 pi/alat)
               b(1) = ( -1.033416 -1.033416  1.033416 )  
               b(2) = (  1.033416  1.033416  1.033416 )  
               b(3) = ( -1.033416  1.033416 -1.033416 )  


     PseudoPot. # 1 for Si read from file:
     ./PSEUDO/Si.LDA.upf
     MD5 check sum: 9e2d726316af3d4752eea8ab0afbb951
     Pseudo is Norm-conserving + core correction, Zval =  4.0
     Generated using ONCVPSP code by D. R. Hamann
     Using radial grid of 1510 points,  6 beta functions with: 
                l(1) =   0
                l(2) =   0
                l(3) =   1
                l(4) =   1
                l(5) =   2
                l(6) =   2

     atomic species   valence    mass     pseudopotential
     Si                4.00    28.76000     Si( 1.00)

     48 Sym. Ops., with inversion, found



   Cartesian axes

     site n.     atom                  positions (alat units)
         1        Si     tau(   1) = (   0.0000000   0.0000000   0.0000000  )

     number of k points=    16 (tetrahedron method)
                       cart. coord. in units 2pi/alat
        k(    1) = (   0.0000000   0.0000000   0.0000000), wk =   0.0092593
        k(    2) = (  -0.1722360   0.1722360  -0.1722360), wk =   0.0740741
        k(    3) = (  -0.3444720   0.3444720  -0.3444720), wk =   0.0740741
        k(    4) = (   0.5167080  -0.5167080   0.5167080), wk =   0.0370370
        k(    5) = (   0.0000000   0.3444720   0.0000000), wk =   0.0555556
        k(    6) = (  -0.1722360   0.5167080  -0.1722360), wk =   0.2222222
        k(    7) = (   0.6889440  -0.3444720   0.6889440), wk =   0.2222222
        k(    8) = (   0.5167080  -0.1722360   0.5167080), wk =   0.2222222
        k(    9) = (   0.3444720   0.0000000   0.3444720), wk =   0.1111111
        k(   10) = (   0.0000000   0.6889440   0.0000000), wk =   0.0555556
        k(   11) = (   0.8611800  -0.1722360   0.8611800), wk =   0.2222222
        k(   12) = (   0.6889440   0.0000000   0.6889440), wk =   0.1111111
        k(   13) = (   0.0000000  -1.0334160   0.0000000), wk =   0.0277778
        k(   14) = (   0.6889440  -0.3444720   1.0334160), wk =   0.2222222
        k(   15) = (   0.5167080  -0.1722360   0.8611800), wk =   0.2222222
        k(   16) = (  -0.3444720  -1.0334160   0.0000000), wk =   0.1111111

     Dense  grid:     4477 G-vectors     FFT dimensions: (  24,  24,  24)

     Estimated max dynamical RAM per process >       6.57 MB

     Initial potential from superposition of free atoms

     starting charge       3.9994, renormalised to       4.0000
     Starting wfcs are    4 randomized atomic wfcs +    2 random wfcs

     total cpu time spent up to now is        3.2 secs

     Self-consistent Calculation

     iteration #  1     ecut=    60.00 Ry     beta= 0.70
     Davidson diagonalization with overlap
     c_bands:  2 eigenvalues not converged
     c_bands:  1 eigenvalues not converged
     c_bands:  1 eigenvalues not converged
     c_bands:  2 eigenvalues not converged
     c_bands:  1 eigenvalues not converged
     ethr =  1.00E-06,  avg # of iterations = 15.9

     total cpu time spent up to now is        3.7 secs

     total energy              =      -8.44152916 Ry
     estimated scf accuracy    <       0.00674429 Ry

     iteration #  2     ecut=    60.00 Ry     beta= 0.70
     Davidson diagonalization with overlap
     ethr =  1.69E-04,  avg # of iterations =  1.0

     total cpu time spent up to now is        3.8 secs

     total energy              =      -8.44149466 Ry
     estimated scf accuracy    <       0.00039518 Ry

     iteration #  3     ecut=    60.00 Ry     beta= 0.70
     Davidson diagonalization with overlap
     ethr =  9.88E-06,  avg # of iterations =  1.2

     total cpu time spent up to now is        4.1 secs

     total energy              =      -8.44151989 Ry
     estimated scf accuracy    <       0.00000105 Ry

     iteration #  4     ecut=    60.00 Ry     beta= 0.70
     Davidson diagonalization with overlap
     ethr =  2.63E-08,  avg # of iterations =  2.1

     total cpu time spent up to now is        4.2 secs

     total energy              =      -8.44152024 Ry
     estimated scf accuracy    <       0.00000003 Ry

     iteration #  5     ecut=    60.00 Ry     beta= 0.70
     Davidson diagonalization with overlap
     ethr =  8.66E-10,  avg # of iterations =  1.9

     total cpu time spent up to now is        4.3 secs

     End of self-consistent calculation

          k = 0.0000 0.0000 0.0000 (   537 PWs)   bands (ev):

    -2.2228  28.5903  28.5903  30.6880  30.6880  30.6880

          k =-0.1722 0.1722-0.1722 (   552 PWs)   bands (ev):

    -1.2305  21.0551  27.0460  27.0461  31.8205  32.9140

          k =-0.3445 0.3445-0.3445 (   562 PWs)   bands (ev):

     1.7121  13.0527  26.3226  26.3226  29.6426  29.6426

          k = 0.5167-0.5167 0.5167 (   568 PWs)   bands (ev):

     6.2911   6.7522  27.1416  27.1416  27.2250  27.2250

          k = 0.0000 0.3445 0.0000 (   564 PWs)   bands (ev):

    -0.9011  24.0503  24.0503  24.3712  28.4169  28.9389

          k =-0.1722 0.5167-0.1722 (   562 PWs)   bands (ev):

     1.3870  16.3128  22.6941  23.7702  25.0789  31.3801

          k = 0.6889-0.3445 0.6889 (   556 PWs)   bands (ev):

     5.5476   9.3502  20.5678  22.9909  25.6196  33.0045

          k = 0.5167-0.1722 0.5167 (   554 PWs)   bands (ev):

     3.9644  11.4735  19.1309  24.9419  27.7823  31.6532

          k = 0.3445 0.0000 0.3445 (   558 PWs)   bands (ev):

     0.4104  18.1918  20.1986  28.4667  31.1603  31.3968

          k = 0.0000 0.6889 0.0000 (   556 PWs)   bands (ev):

     2.9983  18.1787  20.5384  20.7550  20.7550  25.8627

          k = 0.8612-0.1722 0.8612 (   560 PWs)   bands (ev):

     6.4621  13.7083  14.4649  20.4858  22.7061  29.4206

          k = 0.6889 0.0000 0.6889 (   558 PWs)   bands (ev):

     8.0523  10.8791  13.0989  21.8802  24.5160  36.5897

          k = 0.0000-1.0334 0.0000 (   556 PWs)   bands (ev):

     8.4484  10.4700  19.2219  19.6543  19.6543  24.7384

          k = 0.6889-0.3445 1.0334 (   557 PWs)   bands (ev):

     4.2796  14.5382  16.6657  19.4960  29.0941  31.3564

          k = 0.5167-0.1722 0.8612 (   556 PWs)   bands (ev):

     8.7362   9.2126  16.3294  17.2280  30.7225  31.3423

          k =-0.3445-1.0334 0.0000 (   560 PWs)   bands (ev):

     9.6627  11.6825  13.3182  15.6770  27.9534  30.5250

     the Fermi energy is    15.5675 ev

!    total energy              =      -8.44152024 Ry
     estimated scf accuracy    <          4.3E-10 Ry

     The total energy is the sum of the following terms:
     one-electron contribution =       6.07934336 Ry
     hartree contribution      =       0.01655235 Ry
     xc contribution           =      -3.38573616 Ry
     ewald contribution        =     -11.15167979 Ry

     convergence has been achieved in   5 iterations

     Forces acting on atoms (cartesian axes, Ry/au):

     atom    1 type  1   force =     0.00000000    0.00000000    0.00000000

     Total force =     0.000000     Total SCF correction =     0.000000


     Computing stress (Cartesian axis) and pressure

          total   stress  (Ry/bohr**3)                   (kbar)     P=      399.95
   0.00271882   0.00000000  -0.00000000          399.95        0.00       -0.00
   0.00000000   0.00271882   0.00000000            0.00      399.95        0.00
  -0.00000000  -0.00000000   0.00271882           -0.00       -0.00      399.95


     Writing all to output data dir ./tmp/vcrelax.save/ :
     XML data file, charge density, pseudopotentials, collected wavefunctions

     init_run     :      0.60s CPU      0.60s WALL (       2 calls)
     electrons    :      3.16s CPU      3.24s WALL (       5 calls)
     update_pot   :      0.01s CPU      0.01s WALL (       3 calls)
     forces       :      0.06s CPU      0.07s WALL (       5 calls)
     stress       :      0.34s CPU      0.35s WALL (       5 calls)

     Called by init_run:
     wfcinit      :      0.13s CPU      0.13s WALL (       2 calls)
     potinit      :      0.05s CPU      0.05s WALL (       2 calls)
     hinit0       :      0.41s CPU      0.41s WALL (       2 calls)

     Called by electrons:
     c_bands      :      2.31s CPU      2.38s WALL (      18 calls)
     sum_band     :      0.82s CPU      0.83s WALL (      18 calls)
     v_of_rho     :      0.02s CPU      0.02s WALL (      20 calls)
     mix_rho      :      0.01s CPU      0.01s WALL (      18 calls)

     Called by c_bands:
     init_us_2    :      0.11s CPU      0.11s WALL (     768 calls)
     init_us_2:cp :      0.11s CPU      0.11s WALL (     768 calls)
     cegterg      :      2.12s CPU      2.18s WALL (     288 calls)

     Called by *egterg:
     cdiaghg      :      0.06s CPU      0.06s WALL (    1144 calls)
     h_psi        :      1.84s CPU      1.89s WALL (    1272 calls)
     g_psi        :      0.01s CPU      0.01s WALL (     952 calls)

     Called by h_psi:
     h_psi:calbec :      0.16s CPU      0.15s WALL (    1272 calls)
     vloc_psi     :      1.56s CPU      1.60s WALL (    1272 calls)
     add_vuspsi   :      0.10s CPU      0.10s WALL (    1272 calls)

     General routines
     calbec       :      0.18s CPU      0.19s WALL (    1672 calls)
     fft          :      0.20s CPU      0.20s WALL (     101 calls)
     ffts         :      0.00s CPU      0.00s WALL (      18 calls)
     fftw         :      1.48s CPU      1.53s WALL (   12884 calls)


     PWSCF        :      4.25s CPU      4.36s WALL


   This run was terminated on:  22:21:54  15Dec2024            

=------------------------------------------------------------------------------=
   JOB DONE.
=------------------------------------------------------------------------------=
