
     Program PWSCF v.7.3 starts on 15Dec2024 at 22:22:54 

     This program is part of the open-source Quantum ESPRESSO suite
     for quantum simulation of materials; please cite
         "P. Giannozzi et al., J. Phys.:Condens. Matter 21 395502 (2009);
         "P. Giannozzi et al., J. Phys.:Condens. Matter 29 465901 (2017);
         "P. Giannozzi et al., J. Chem. Phys. 152 154105 (2020);
          URL http://www.quantum-espresso.org", 
     in publications or presentations arising from this work. More details at
     http://www.quantum-espresso.org/quote

     Serial version
     5189 MiB available memory on the printing compute node when the environment starts

     Waiting for input...
     Reading input from standard input
     Message from routine read_cards :
     DEPRECATED: no units specified in ATOMIC_POSITIONS card
     Message from routine read_cards :
     ATOMIC_POSITIONS: units set to alat

     Current dimensions of program PWSCF are:
     Max number of different atomic species (ntypx) = 10
     Max number of k-points (npk) =  40000
     Max angular momentum in pseudopotentials (lmaxx) =  4
     Message from routine iosys:
     BEWARE:  force calculation with tetrahedra (not recommanded)
     Message from routine iosys:
     BEWARE: stress calculation with tetrahedra (not recommanded)
     [opt_tetra]  Optimized tetrahedron method is used.


     G-vector sticks info
     --------------------
     sticks:   dense  smooth     PW     G-vecs:    dense   smooth      PW
     Sum         349     349    121                 4279     4279     869

     Using Slab Decomposition



     bravais-lattice index     =            2
     lattice parameter (alat)  =       6.4850  a.u.
     unit-cell volume          =      68.1820 (a.u.)^3
     number of atoms/cell      =            1
     number of atomic types    =            1
     number of electrons       =         4.00
     number of Kohn-Sham states=            6
     kinetic-energy cutoff     =      60.0000  Ry
     charge density cutoff     =     240.0000  Ry
     scf convergence threshold =      1.0E-06
     mixing beta               =       0.7000
     number of iterations used =            8  plain     mixing
     energy convergence thresh.=      1.0E-04
     force convergence thresh. =      1.0E-03
     press convergence thresh. =      5.0E-01
     Exchange-correlation= SLA  PW   NOGX NOGC
                           (   1   4   0   0   0   0   0)
     nstep                     =           50


     celldm(1)=   6.485000  celldm(2)=   0.000000  celldm(3)=   0.000000
     celldm(4)=   0.000000  celldm(5)=   0.000000  celldm(6)=   0.000000

     crystal axes: (cart. coord. in units of alat)
               a(1) = (  -0.500000   0.000000   0.500000 )  
               a(2) = (   0.000000   0.500000   0.500000 )  
               a(3) = (  -0.500000   0.500000   0.000000 )  

     reciprocal axes: (cart. coord. in units 2 pi/alat)
               b(1) = ( -1.000000 -1.000000  1.000000 )  
               b(2) = (  1.000000  1.000000  1.000000 )  
               b(3) = ( -1.000000  1.000000 -1.000000 )  


     PseudoPot. # 1 for Si read from file:
     ./PSEUDO/Si.LDA.upf
     MD5 check sum: 9e2d726316af3d4752eea8ab0afbb951
     Pseudo is Norm-conserving + core correction, Zval =  4.0
     Generated using ONCVPSP code by D. R. Hamann
     Using radial grid of 1510 points,  6 beta functions with: 
                l(1) =   0
                l(2) =   0
                l(3) =   1
                l(4) =   1
                l(5) =   2
                l(6) =   2

     atomic species   valence    mass     pseudopotential
     Si                4.00    28.76000     Si( 1.00)

     48 Sym. Ops., with inversion, found



   Cartesian axes

     site n.     atom                  positions (alat units)
         1        Si     tau(   1) = (   0.0000000   0.0000000   0.0000000  )

     number of k points=    16 (tetrahedron method)
                       cart. coord. in units 2pi/alat
        k(    1) = (   0.0000000   0.0000000   0.0000000), wk =   0.0092593
        k(    2) = (  -0.1666667   0.1666667  -0.1666667), wk =   0.0740741
        k(    3) = (  -0.3333333   0.3333333  -0.3333333), wk =   0.0740741
        k(    4) = (   0.5000000  -0.5000000   0.5000000), wk =   0.0370370
        k(    5) = (   0.0000000   0.3333333   0.0000000), wk =   0.0555556
        k(    6) = (  -0.1666667   0.5000000  -0.1666667), wk =   0.2222222
        k(    7) = (   0.6666667  -0.3333333   0.6666667), wk =   0.2222222
        k(    8) = (   0.5000000  -0.1666667   0.5000000), wk =   0.2222222
        k(    9) = (   0.3333333   0.0000000   0.3333333), wk =   0.1111111
        k(   10) = (   0.0000000   0.6666667   0.0000000), wk =   0.0555556
        k(   11) = (   0.8333333  -0.1666667   0.8333333), wk =   0.2222222
        k(   12) = (   0.6666667   0.0000000   0.6666667), wk =   0.1111111
        k(   13) = (   0.0000000  -1.0000000   0.0000000), wk =   0.0277778
        k(   14) = (   0.6666667  -0.3333333   1.0000000), wk =   0.2222222
        k(   15) = (   0.5000000  -0.1666667   0.8333333), wk =   0.2222222
        k(   16) = (  -0.3333333  -1.0000000   0.0000000), wk =   0.1111111

     Dense  grid:     4279 G-vectors     FFT dimensions: (  24,  24,  24)

     Estimated max dynamical RAM per process >       6.40 MB

     Initial potential from superposition of free atoms

     starting charge       3.9994, renormalised to       4.0000
     Starting wfcs are    4 randomized atomic wfcs +    2 random wfcs

     total cpu time spent up to now is        0.5 secs

     Self-consistent Calculation

     iteration #  1     ecut=    60.00 Ry     beta= 0.70
     Davidson diagonalization with overlap
     ethr =  1.00E-02,  avg # of iterations =  6.1

     Threshold (ethr) on eigenvalues was too large:
     Diagonalizing with lowered threshold

     Davidson diagonalization with overlap
     ethr =  1.82E-04,  avg # of iterations =  2.6

     total cpu time spent up to now is        1.0 secs

     total energy              =      -8.43226303 Ry
     estimated scf accuracy    <       0.00714790 Ry

     iteration #  2     ecut=    60.00 Ry     beta= 0.70
     Davidson diagonalization with overlap
     ethr =  1.79E-04,  avg # of iterations =  1.4

     total cpu time spent up to now is        1.1 secs

     total energy              =      -8.43225094 Ry
     estimated scf accuracy    <       0.00041339 Ry

     iteration #  3     ecut=    60.00 Ry     beta= 0.70
     Davidson diagonalization with overlap
     ethr =  1.03E-05,  avg # of iterations =  2.4

     total cpu time spent up to now is        1.2 secs

     End of self-consistent calculation

          k = 0.0000 0.0000 0.0000 (   531 PWs)   bands (ev):

    -1.9539  29.5333  29.5334  32.1216  32.1216  32.1216

          k =-0.1667 0.1667-0.1667 (   540 PWs)   bands (ev):

    -0.9341  21.9226  28.0978  28.0979  33.0807  34.2688

          k =-0.3333 0.3333-0.3333 (   528 PWs)   bands (ev):

     2.0874  13.7261  27.3852  27.3852  30.7888  30.7890

          k = 0.5000-0.5000 0.5000 (   544 PWs)   bands (ev):

     6.7158   7.3379  28.1198  28.1199  28.4229  28.4229

          k = 0.0000 0.3333 0.0000 (   540 PWs)   bands (ev):

    -0.5957  25.0571  25.0572  25.1718  29.7018  30.0564

          k =-0.1667 0.5000-0.1667 (   537 PWs)   bands (ev):

     1.7538  17.0568  23.6811  24.6878  26.1283  32.6606

          k = 0.6667-0.3333 0.6667 (   540 PWs)   bands (ev):

     6.0156   9.9352  21.4529  23.9873  26.6740  34.2284

          k = 0.5000-0.1667 0.5000 (   541 PWs)   bands (ev):

     4.3968  12.1026  19.9998  25.9872  28.8889  32.8229

          k = 0.3333 0.0000 0.3333 (   537 PWs)   bands (ev):

     0.7513  18.9439  21.1422  29.6313  32.1818  32.5888

          k = 0.0000 0.6667 0.0000 (   540 PWs)   bands (ev):

     3.4069  18.9777  21.2218  21.7062  21.7063  27.1320

          k = 0.8333-0.1667 0.8333 (   528 PWs)   bands (ev):

     6.9539  14.3262  15.2534  21.4336  23.6419  30.6624

          k = 0.6667 0.0000 0.6667 (   528 PWs)   bands (ev):

     8.5766  11.4499  13.8611  22.8572  25.5288  37.9591

          k = 0.0000-1.0000 0.0000 (   524 PWs)   bands (ev):

     8.9629  11.1151  19.8657  20.5865  20.5865  25.9710

          k = 0.6667-0.3333 1.0000 (   535 PWs)   bands (ev):

     4.7202  15.1967  17.4789  20.4319  30.1388  32.6993

          k = 0.5000-0.1667 0.8333 (   534 PWs)   bands (ev):

     9.2247   9.8377  17.0058  18.2059  31.9466  32.4711

          k =-0.3333-1.0000 0.0000 (   530 PWs)   bands (ev):

    10.2050  12.3218  13.9459  16.6013  28.9744  31.8373

     the Fermi energy is    16.3179 ev

!    total energy              =      -8.43227662 Ry
     estimated scf accuracy    <       0.00000079 Ry

     The total energy is the sum of the following terms:
     one-electron contribution =       6.28552531 Ry
     hartree contribution      =       0.01711819 Ry
     xc contribution           =      -3.42300136 Ry
     ewald contribution        =     -11.31191877 Ry

     convergence has been achieved in   3 iterations

     Forces acting on atoms (cartesian axes, Ry/au):

     atom    1 type  1   force =     0.00000000    0.00000000    0.00000000

     Total force =     0.000000     Total SCF correction =     0.000000


     Computing stress (Cartesian axis) and pressure

          total   stress  (Ry/bohr**3)                   (kbar)     P=      516.24
   0.00350933  -0.00000000   0.00000000          516.24       -0.00        0.00
  -0.00000000   0.00350933   0.00000000           -0.00      516.24        0.00
   0.00000000   0.00000000   0.00350933            0.00        0.00      516.24


     BFGS Geometry Optimization
     Energy error            =      0.0E+00 Ry
     Gradient error          =      0.0E+00 Ry/Bohr
     Cell gradient error     =      1.8E+02 kbar

     number of scf cycles    =   1
     number of bfgs steps    =   0

     enthalpy           new  =      -8.1078321912 Ry

     new trust radius        =       0.0515736025 bohr
     new conv_thr            =       0.0000010000 Ry

     new unit-cell volume =     61.99161 a.u.^3 (     9.18621 Ang^3 )
     density =      5.19878 g/cm^3

CELL_PARAMETERS (alat=  6.48500000)
  -0.484385341   0.000000000   0.484385341
  -0.000000000   0.484385341   0.484385341
  -0.484385341   0.484385341   0.000000000

ATOMIC_POSITIONS (alat)
Si              -0.0000000000        0.0000000000        0.0000000000



     Writing config-only to output data dir ./tmp/vcrelax.save/ :
     XML data file
     NEW-OLD atomic charge density approx. for the potential

     total cpu time spent up to now is        1.4 secs

     Self-consistent Calculation

     iteration #  1     ecut=    60.00 Ry     beta= 0.70
     Davidson diagonalization with overlap
     ethr =  1.00E-06,  avg # of iterations =  6.3

     total cpu time spent up to now is        1.6 secs

     total energy              =      -8.40386684 Ry
     estimated scf accuracy    <       0.00001393 Ry

     iteration #  2     ecut=    60.00 Ry     beta= 0.70
     Davidson diagonalization with overlap
     ethr =  3.48E-07,  avg # of iterations =  1.0

     total cpu time spent up to now is        1.7 secs

     End of self-consistent calculation

          k = 0.0000 0.0000 0.0000 (   531 PWs)   bands (ev):

    -1.3093  31.7321  31.7321  35.4829  35.4831  35.4831

          k =-0.1720 0.1720-0.1720 (   540 PWs)   bands (ev):

    -0.2262  23.9301  30.5109  30.5109  36.0146  37.4400

          k =-0.3441 0.3441-0.3441 (   528 PWs)   bands (ev):

     2.9756  15.2988  29.7993  29.7993  33.5380  33.5380

          k = 0.5161-0.5161 0.5161 (   544 PWs)   bands (ev):

     7.7227   8.7073  30.2039  30.2039  31.4401  31.4401

          k = 0.0000 0.3441 0.0000 (   540 PWs)   bands (ev):

     0.1331  27.0379  27.3971  27.3971  31.9997  33.4007

          k =-0.1720 0.5161-0.1720 (   537 PWs)   bands (ev):

     2.6231  18.7842  25.9821  26.7180  28.6725  35.7135

          k = 0.6882-0.3441 0.6882 (   540 PWs)   bands (ev):

     7.1099  11.3114  23.4765  26.3048  29.1998  37.1147

          k = 0.5161-0.1720 0.5161 (   541 PWs)   bands (ev):

     5.4137  13.5750  22.0109  28.4011  31.5189  35.5778

          k = 0.3441 0.0000 0.3441 (   537 PWs)   bands (ev):

     1.5614  20.6956  23.3280  32.2749  34.5648  35.3924

          k = 0.0000 0.6882 0.0000 (   540 PWs)   bands (ev):

     4.3719  20.7997  22.8145  23.9369  23.9369  30.1884

          k = 0.8602-0.1720 0.8602 (   528 PWs)   bands (ev):

     8.1074  15.7640  17.0707  23.6574  25.8640  33.6192

          k = 0.6882 0.0000 0.6882 (   528 PWs)   bands (ev):

     9.7955  12.7960  15.6292  25.1409  27.9375  41.1720

          k = 0.0000-1.0322 0.0000 (   524 PWs)   bands (ev):

    10.1840  12.5856  21.3660  22.7793  22.7793  28.9277

          k = 0.6882-0.3441 1.0322 (   535 PWs)   bands (ev):

     5.7568  16.7372  19.3270  22.6676  32.5820  35.8822

          k = 0.5161-0.1720 0.8602 (   534 PWs)   bands (ev):

    10.3754  11.2901  18.5789  20.5169  34.8128  35.1161

          k =-0.3441-1.0322 0.0000 (   530 PWs)   bands (ev):

    11.4876  13.7584  15.4166  18.8200  31.3674  34.9448

     the Fermi energy is    18.0218 ev

!    total energy              =      -8.40386688 Ry
     estimated scf accuracy    <       0.00000093 Ry

     The total energy is the sum of the following terms:
     one-electron contribution =       6.76233101 Ry
     hartree contribution      =       0.02004818 Ry
     xc contribution           =      -3.50967599 Ry
     ewald contribution        =     -11.67657008 Ry

     convergence has been achieved in   2 iterations

     Forces acting on atoms (cartesian axes, Ry/au):

     atom    1 type  1   force =     0.00000000    0.00000000    0.00000000

     Total force =     0.000000     Total SCF correction =     0.000000


     Computing stress (Cartesian axis) and pressure

          total   stress  (Ry/bohr**3)                   (kbar)     P=      860.86
   0.00585202   0.00000000   0.00000000          860.86        0.00        0.00
   0.00000000   0.00585202   0.00000000            0.00      860.86        0.00
   0.00000000   0.00000000   0.00585202            0.00        0.00      860.86

     Energy error            =      1.0E-03 Ry
     Gradient error          =      0.0E+00 Ry/Bohr
     Cell gradient error     =      1.6E+02 kbar

     number of scf cycles    =   2
     number of bfgs steps    =   1

     enthalpy           old  =      -8.1078321912 Ry
     enthalpy           new  =      -8.1088796028 Ry

     CASE: enthalpy          _new < enthalpy          _old

     new trust radius        =       0.0228948052 bohr
     new conv_thr            =       0.0000000100 Ry

     new unit-cell volume =     64.73504 a.u.^3 (     9.59274 Ang^3 )
     density =      4.97846 g/cm^3

CELL_PARAMETERS (alat=  6.48500000)
  -0.491427916   0.000000000   0.491427916
  -0.000000000   0.491427916   0.491427916
  -0.491427916   0.491427916   0.000000000

ATOMIC_POSITIONS (alat)
Si              -0.0000000000        0.0000000000        0.0000000000



     Writing config-only to output data dir ./tmp/vcrelax.save/ :
     XML data file
     NEW-OLD atomic charge density approx. for the potential

     total cpu time spent up to now is        1.9 secs

     Self-consistent Calculation

     iteration #  1     ecut=    60.00 Ry     beta= 0.70
     Davidson diagonalization with overlap
     ethr =  1.00E-06,  avg # of iterations =  5.4

     Threshold (ethr) on eigenvalues was too large:
     Diagonalizing with lowered threshold

     Davidson diagonalization with overlap
     ethr =  8.18E-08,  avg # of iterations =  1.3

     total cpu time spent up to now is        2.2 secs

     total energy              =      -8.41825756 Ry
     estimated scf accuracy    <       0.00000332 Ry

     iteration #  2     ecut=    60.00 Ry     beta= 0.70
     Davidson diagonalization with overlap
     ethr =  8.29E-08,  avg # of iterations =  1.0

     total cpu time spent up to now is        2.3 secs

     total energy              =      -8.41825754 Ry
     estimated scf accuracy    <       0.00000022 Ry

     iteration #  3     ecut=    60.00 Ry     beta= 0.70
     Davidson diagonalization with overlap
     ethr =  5.54E-09,  avg # of iterations =  1.2

     total cpu time spent up to now is        2.4 secs

     End of self-consistent calculation

          k = 0.0000 0.0000 0.0000 (   531 PWs)   bands (ev):

    -1.6106  30.7143  30.7143  30.7143  33.9240  33.9240

          k =-0.1696 0.1696-0.1696 (   540 PWs)   bands (ev):

    -0.5567  23.0035  29.4003  29.4003  34.6563  35.9750

          k =-0.3391 0.3391-0.3391 (   528 PWs)   bands (ev):

     2.5622  14.5706  28.6924  28.6924  32.2528  32.2528

          k = 0.5087-0.5087 0.5087 (   544 PWs)   bands (ev):

     7.2537   8.0731  29.2393  29.2393  30.0386  30.0386

          k = 0.0000 0.3391-0.0000 (   540 PWs)   bands (ev):

    -0.2070  26.1748  26.3153  26.3153  30.9684  31.8126

          k =-0.1696 0.5087-0.1696 (   537 PWs)   bands (ev):

     2.2184  17.9860  24.9170  25.7923  27.4833  34.2879

          k = 0.6783-0.3391 0.6783 (   540 PWs)   bands (ev):

     6.6027  10.6725  22.5465  25.2331  28.0193  35.7728

          k = 0.5087-0.1696 0.5087 (   541 PWs)   bands (ev):

     4.9415  12.8928  21.0827  27.2877  30.2931  34.2977

          k = 0.3391 0.0000 0.3391 (   537 PWs)   bands (ev):

     1.1839  19.8855  22.3186  31.0631  33.4617  34.0908

          k = 0.0000 0.6783-0.0000 (   540 PWs)   bands (ev):

     3.9232  19.9627  22.0781  22.9021  22.9021  28.7571

          k = 0.8479-0.1696 0.8479 (   528 PWs)   bands (ev):

     7.5723  15.0987  16.2337  22.6256  24.8290  32.2396

          k = 0.6783 0.0000 0.6783 (   528 PWs)   bands (ev):

     9.2318  12.1707  14.8124  24.0829  26.8147  39.6796

          k =-0.0000-1.0174 0.0000 (   524 PWs)   bands (ev):

     9.6155  11.9102  20.6725  21.7610  21.7610  27.5446

          k = 0.6783-0.3391 1.0174 (   535 PWs)   bands (ev):

     5.2755  16.0237  18.4791  21.6242  31.4501  34.3996

          k = 0.5087-0.1696 0.8479 (   534 PWs)   bands (ev):

     9.8408  10.6189  17.8512  19.4424  33.4839  33.8893

          k =-0.3391-1.0174 0.0000 (   530 PWs)   bands (ev):

    10.8912  13.1011  14.7350  17.7832  30.2578  33.4977

     the Fermi energy is    17.2440 ev

!    total energy              =      -8.41825755 Ry
     estimated scf accuracy    <          5.2E-10 Ry

     The total energy is the sum of the following terms:
     one-electron contribution =       6.54214951 Ry
     hartree contribution      =       0.01841872 Ry
     xc contribution           =      -3.46959077 Ry
     ewald contribution        =     -11.50923502 Ry

     convergence has been achieved in   3 iterations

     Forces acting on atoms (cartesian axes, Ry/au):

     atom    1 type  1   force =     0.00000000    0.00000000    0.00000000

     Total force =     0.000000     Total SCF correction =     0.000000


     Computing stress (Cartesian axis) and pressure

          total   stress  (Ry/bohr**3)                   (kbar)     P=      688.18
   0.00467817   0.00000000   0.00000000          688.18        0.00        0.00
   0.00000000   0.00467817  -0.00000000            0.00      688.18       -0.00
   0.00000000  -0.00000000   0.00467817            0.00       -0.00      688.18

     Energy error            =      1.3E-03 Ry
     Gradient error          =      0.0E+00 Ry/Bohr
     Cell gradient error     =      1.2E+01 kbar

     number of scf cycles    =   3
     number of bfgs steps    =   2

     enthalpy           old  =      -8.1088796028 Ry
     enthalpy           new  =      -8.1102156634 Ry

     CASE: enthalpy          _new < enthalpy          _old

     new trust radius        =       0.0016211306 bohr
     new conv_thr            =       0.0000000100 Ry

     new unit-cell volume =     64.53959 a.u.^3 (     9.56378 Ang^3 )
     density =      4.99354 g/cm^3

CELL_PARAMETERS (alat=  6.48500000)
  -0.490932833   0.000000000   0.490932833
   0.000000000   0.490932833   0.490932833
  -0.490932833   0.490932833  -0.000000000

ATOMIC_POSITIONS (alat)
Si               0.0000000000        0.0000000000        0.0000000000



     Writing config-only to output data dir ./tmp/vcrelax.save/ :
     XML data file
     NEW-OLD atomic charge density approx. for the potential

     total cpu time spent up to now is        2.7 secs

     Self-consistent Calculation

     iteration #  1     ecut=    60.00 Ry     beta= 0.70
     Davidson diagonalization with overlap
     ethr =  1.00E-06,  avg # of iterations =  2.0

     Threshold (ethr) on eigenvalues was too large:
     Diagonalizing with lowered threshold

     Davidson diagonalization with overlap
     ethr =  2.21E-10,  avg # of iterations =  4.1

     total cpu time spent up to now is        2.9 secs

     total energy              =      -8.41733585 Ry
     estimated scf accuracy    <       0.00000002 Ry

     iteration #  2     ecut=    60.00 Ry     beta= 0.70
     Davidson diagonalization with overlap
     ethr =  4.23E-10,  avg # of iterations =  1.0

     total cpu time spent up to now is        3.0 secs

     End of self-consistent calculation

          k = 0.0000 0.0000 0.0000 (   531 PWs)   bands (ev):

    -1.5900  30.7844  30.7844  30.7844  34.0312  34.0312

          k =-0.1697 0.1697-0.1697 (   540 PWs)   bands (ev):

    -0.5341  23.0675  29.4771  29.4771  34.7499  36.0763

          k =-0.3395 0.3395-0.3395 (   528 PWs)   bands (ev):

     2.5906  14.6207  28.7692  28.7692  32.3407  32.3407

          k = 0.5092-0.5092 0.5092 (   544 PWs)   bands (ev):

     7.2859   8.1168  29.3058  29.3058  30.1349  30.1349

          k = 0.0000 0.3395-0.0000 (   540 PWs)   bands (ev):

    -0.1837  26.2343  26.3899  26.3899  31.0401  31.9210

          k =-0.1697 0.5092-0.1697 (   537 PWs)   bands (ev):

     2.2461  18.0411  24.9903  25.8567  27.5647  34.3854

          k = 0.6790-0.3395 0.6790 (   540 PWs)   bands (ev):

     6.6376  10.7165  22.6109  25.3070  28.1000  35.8649

          k = 0.5092-0.1697 0.5092 (   541 PWs)   bands (ev):

     4.9740  12.9397  21.1468  27.3646  30.3770  34.3856

          k = 0.3395-0.0000 0.3395 (   537 PWs)   bands (ev):

     1.2098  19.9414  22.3882  31.1472  33.5377  34.1803

          k = 0.0000 0.6790-0.0000 (   540 PWs)   bands (ev):

     3.9540  20.0207  22.1289  22.9733  22.9733  28.8548

          k = 0.8487-0.1697 0.8487 (   528 PWs)   bands (ev):

     7.6091  15.1446  16.2916  22.6965  24.8999  32.3340

          k = 0.6790-0.0000 0.6790 (   528 PWs)   bands (ev):

     9.2706  12.2137  14.8688  24.1557  26.8916  39.7822

          k =-0.0000-1.0185 0.0000 (   524 PWs)   bands (ev):

     9.6544  11.9570  20.7203  21.8309  21.8309  27.6391

          k = 0.6790-0.3395 1.0185 (   535 PWs)   bands (ev):

     5.3085  16.0728  18.5379  21.6956  31.5280  34.5012

          k = 0.5092-0.1697 0.8487 (   534 PWs)   bands (ev):

     9.8775  10.6651  17.9014  19.5161  33.5753  33.9737

          k =-0.3395-1.0185 0.0000 (   530 PWs)   bands (ev):

    10.9321  13.1468  14.7819  17.8541  30.3341  33.5969

     the Fermi energy is    17.2982 ev

!    total energy              =      -8.41733584 Ry
     estimated scf accuracy    <          1.1E-09 Ry

     The total energy is the sum of the following terms:
     one-electron contribution =       6.55734084 Ry
     hartree contribution      =       0.01851912 Ry
     xc contribution           =      -3.47235425 Ry
     ewald contribution        =     -11.52084155 Ry

     convergence has been achieved in   2 iterations

     Forces acting on atoms (cartesian axes, Ry/au):

     atom    1 type  1   force =     0.00000000    0.00000000    0.00000000

     Total force =     0.000000     Total SCF correction =     0.000000


     Computing stress (Cartesian axis) and pressure

          total   stress  (Ry/bohr**3)                   (kbar)     P=      699.25
   0.00475338   0.00000000   0.00000000          699.25        0.00        0.00
  -0.00000000   0.00475338  -0.00000000           -0.00      699.25       -0.00
   0.00000000   0.00000000   0.00475338            0.00        0.00      699.25

     Energy error            =      8.4E-06 Ry
     Gradient error          =      0.0E+00 Ry/Bohr
     Cell gradient error     =      7.5E-01 kbar

     number of scf cycles    =   4
     number of bfgs steps    =   3

     enthalpy           old  =      -8.1102156634 Ry
     enthalpy           new  =      -8.1102240148 Ry

     CASE: enthalpy          _new < enthalpy          _old

     new trust radius        =       0.0001101385 bohr
     new conv_thr            =       0.0000000100 Ry

     new unit-cell volume =     64.52631 a.u.^3 (     9.56181 Ang^3 )
     density =      4.99457 g/cm^3

CELL_PARAMETERS (alat=  6.48500000)
  -0.490899181   0.000000000   0.490899181
   0.000000000   0.490899181   0.490899181
  -0.490899181   0.490899181  -0.000000000

ATOMIC_POSITIONS (alat)
Si               0.0000000000        0.0000000000        0.0000000000



     Writing config-only to output data dir ./tmp/vcrelax.save/ :
     XML data file
     NEW-OLD atomic charge density approx. for the potential

     total cpu time spent up to now is        3.1 secs

     Self-consistent Calculation

     iteration #  1     ecut=    60.00 Ry     beta= 0.70
     Davidson diagonalization with overlap
     ethr =  1.00E-06,  avg # of iterations =  1.0

     Threshold (ethr) on eigenvalues was too large:
     Diagonalizing with lowered threshold

     Davidson diagonalization with overlap
     ethr =  1.12E-12,  avg # of iterations =  4.4

     total cpu time spent up to now is        3.4 secs

     End of self-consistent calculation

          k = 0.0000 0.0000 0.0000 (   531 PWs)   bands (ev):

    -1.5886  30.7892  30.7892  30.7892  34.0384  34.0384

          k =-0.1698 0.1698-0.1698 (   540 PWs)   bands (ev):

    -0.5325  23.0719  29.4823  29.4823  34.7563  36.0832

          k =-0.3395 0.3395-0.3395 (   528 PWs)   bands (ev):

     2.5925  14.6241  28.7744  28.7744  32.3466  32.3466

          k = 0.5093-0.5093 0.5093 (   544 PWs)   bands (ev):

     7.2881   8.1197  29.3103  29.3103  30.1414  30.1414

          k = 0.0000 0.3395-0.0000 (   540 PWs)   bands (ev):

    -0.1821  26.2384  26.3950  26.3950  31.0449  31.9283

          k =-0.1698 0.5093-0.1698 (   537 PWs)   bands (ev):

     2.2480  18.0448  24.9953  25.8611  27.5703  34.3920

          k = 0.6790-0.3395 0.6790 (   540 PWs)   bands (ev):

     6.6400  10.7194  22.6153  25.3120  28.1055  35.8712

          k = 0.5093-0.1698 0.5093 (   541 PWs)   bands (ev):

     4.9762  12.9429  21.1511  27.3698  30.3827  34.3915

          k = 0.3395 0.0000 0.3395 (   537 PWs)   bands (ev):

     1.2116  19.9452  22.3930  31.1529  33.5428  34.1863

          k = 0.0000 0.6790-0.0000 (   540 PWs)   bands (ev):

     3.9561  20.0247  22.1324  22.9781  22.9781  28.8614

          k = 0.8488-0.1698 0.8488 (   528 PWs)   bands (ev):

     7.6116  15.1477  16.2955  22.7013  24.9047  32.3404

          k = 0.6790 0.0000 0.6790 (   528 PWs)   bands (ev):

     9.2733  12.2166  14.8726  24.1607  26.8968  39.7891

          k =-0.0000-1.0185 0.0000 (   524 PWs)   bands (ev):

     9.6571  11.9602  20.7236  21.8357  21.8357  27.6454

          k = 0.6790-0.3395 1.0185 (   535 PWs)   bands (ev):

     5.3108  16.0761  18.5419  21.7005  31.5333  34.5080

          k = 0.5093-0.1698 0.8488 (   534 PWs)   bands (ev):

     9.8801  10.6683  17.9048  19.5211  33.5815  33.9794

          k =-0.3395-1.0185-0.0000 (   530 PWs)   bands (ev):

    10.9349  13.1499  14.7851  17.8589  30.3393  33.6036

     the Fermi energy is    17.3019 ev

!    total energy              =      -8.41727272 Ry
     estimated scf accuracy    <          4.1E-11 Ry

     The total energy is the sum of the following terms:
     one-electron contribution =       6.55837579 Ry
     hartree contribution      =       0.01852566 Ry
     xc contribution           =      -3.47254283 Ry
     ewald contribution        =     -11.52163134 Ry

     convergence has been achieved in   1 iterations

     Forces acting on atoms (cartesian axes, Ry/au):

     atom    1 type  1   force =     0.00000000    0.00000000    0.00000000

     Total force =     0.000000     Total SCF correction =     0.000000


     Computing stress (Cartesian axis) and pressure

          total   stress  (Ry/bohr**3)                   (kbar)     P=      700.03
   0.00475868  -0.00000000   0.00000000          700.03       -0.00        0.00
   0.00000000   0.00475868   0.00000000            0.00      700.03        0.00
  -0.00000000   0.00000000   0.00475868           -0.00        0.00      700.03

     Energy error            =      3.2E-08 Ry
     Gradient error          =      0.0E+00 Ry/Bohr
     Cell gradient error     =      2.6E-02 kbar

     bfgs converged in   5 scf cycles and   4 bfgs steps
     (criteria: energy <  1.0E-04 Ry, force <  1.0E-03 Ry/Bohr, cell <  5.0E-01 kbar)

     End of BFGS Geometry Optimization

     Final enthalpy           =      -8.1102240464 Ry

     File ./tmp/vcrelax.bfgs deleted, as requested
Begin final coordinates
     new unit-cell volume =     64.52631 a.u.^3 (     9.56181 Ang^3 )
     density =      4.99457 g/cm^3

CELL_PARAMETERS (alat=  6.48500000)
  -0.490899181   0.000000000   0.490899181
   0.000000000   0.490899181   0.490899181
  -0.490899181   0.490899181  -0.000000000

ATOMIC_POSITIONS (alat)
Si               0.0000000000        0.0000000000        0.0000000000
End final coordinates



     Writing config-only to output data dir ./tmp/vcrelax.save/ :
     XML data file

     Final scf calculation at the relaxed structure.
     The G-vectors are recalculated for the final unit cell
     Results may differ from those at the preceding step.

     G-vector sticks info
     --------------------
     sticks:   dense  smooth     PW     G-vecs:    dense   smooth      PW
     Sum         337     337    109                 4015     4015     749

     Using Slab Decomposition



     bravais-lattice index     =            2
     lattice parameter (alat)  =       6.4850  a.u.
     unit-cell volume          =      64.5263 (a.u.)^3
     number of atoms/cell      =            1
     number of atomic types    =            1
     number of electrons       =         4.00
     number of Kohn-Sham states=            6
     kinetic-energy cutoff     =      60.0000  Ry
     charge density cutoff     =     240.0000  Ry
     scf convergence threshold =      1.0E-08
     mixing beta               =       0.7000
     number of iterations used =            8  plain     mixing
     press convergence thresh. =      5.0E-01
     Exchange-correlation= SLA  PW   NOGX NOGC
                           (   1   4   0   0   0   0   0)

     celldm(1)=   6.485000  celldm(2)=   0.000000  celldm(3)=   0.000000
     celldm(4)=   0.000000  celldm(5)=   0.000000  celldm(6)=   0.000000

     crystal axes: (cart. coord. in units of alat)
               a(1) = (  -0.490899   0.000000   0.490899 )  
               a(2) = (   0.000000   0.490899   0.490899 )  
               a(3) = (  -0.490899   0.490899  -0.000000 )  

     reciprocal axes: (cart. coord. in units 2 pi/alat)
               b(1) = ( -1.018539 -1.018539  1.018539 )  
               b(2) = (  1.018539  1.018539  1.018539 )  
               b(3) = ( -1.018539  1.018539 -1.018539 )  


     PseudoPot. # 1 for Si read from file:
     ./PSEUDO/Si.LDA.upf
     MD5 check sum: 9e2d726316af3d4752eea8ab0afbb951
     Pseudo is Norm-conserving + core correction, Zval =  4.0
     Generated using ONCVPSP code by D. R. Hamann
     Using radial grid of 1510 points,  6 beta functions with: 
                l(1) =   0
                l(2) =   0
                l(3) =   1
                l(4) =   1
                l(5) =   2
                l(6) =   2

     atomic species   valence    mass     pseudopotential
     Si                4.00    28.76000     Si( 1.00)

     48 Sym. Ops., with inversion, found



   Cartesian axes

     site n.     atom                  positions (alat units)
         1        Si     tau(   1) = (   0.0000000   0.0000000   0.0000000  )

     number of k points=    16 (tetrahedron method)
                       cart. coord. in units 2pi/alat
        k(    1) = (   0.0000000   0.0000000   0.0000000), wk =   0.0092593
        k(    2) = (  -0.1697565   0.1697565  -0.1697565), wk =   0.0740741
        k(    3) = (  -0.3395130   0.3395130  -0.3395130), wk =   0.0740741
        k(    4) = (   0.5092695  -0.5092695   0.5092695), wk =   0.0370370
        k(    5) = (   0.0000000   0.3395130  -0.0000000), wk =   0.0555556
        k(    6) = (  -0.1697565   0.5092695  -0.1697565), wk =   0.2222222
        k(    7) = (   0.6790261  -0.3395130   0.6790261), wk =   0.2222222
        k(    8) = (   0.5092695  -0.1697565   0.5092695), wk =   0.2222222
        k(    9) = (   0.3395130   0.0000000   0.3395130), wk =   0.1111111
        k(   10) = (   0.0000000   0.6790261  -0.0000000), wk =   0.0555556
        k(   11) = (   0.8487826  -0.1697565   0.8487826), wk =   0.2222222
        k(   12) = (   0.6790261   0.0000000   0.6790261), wk =   0.1111111
        k(   13) = (  -0.0000000  -1.0185391   0.0000000), wk =   0.0277778
        k(   14) = (   0.6790261  -0.3395130   1.0185391), wk =   0.2222222
        k(   15) = (   0.5092695  -0.1697565   0.8487826), wk =   0.2222222
        k(   16) = (  -0.3395130  -1.0185391  -0.0000000), wk =   0.1111111

     Dense  grid:     4015 G-vectors     FFT dimensions: (  24,  24,  24)

     Estimated max dynamical RAM per process >       6.26 MB

     Initial potential from superposition of free atoms

     starting charge       3.9994, renormalised to       4.0000
     Starting wfcs are    4 randomized atomic wfcs +    2 random wfcs

     total cpu time spent up to now is        3.6 secs

     Self-consistent Calculation

     iteration #  1     ecut=    60.00 Ry     beta= 0.70
     Davidson diagonalization with overlap
     c_bands:  1 eigenvalues not converged
     c_bands:  1 eigenvalues not converged
     c_bands:  1 eigenvalues not converged
     c_bands:  1 eigenvalues not converged
     ethr =  1.00E-06,  avg # of iterations = 15.9

     total cpu time spent up to now is        4.0 secs

     total energy              =      -8.41732332 Ry
     estimated scf accuracy    <       0.00747805 Ry

     iteration #  2     ecut=    60.00 Ry     beta= 0.70
     Davidson diagonalization with overlap
     ethr =  1.87E-04,  avg # of iterations =  1.0

     total cpu time spent up to now is        4.1 secs

     total energy              =      -8.41724657 Ry
     estimated scf accuracy    <       0.00046407 Ry

     iteration #  3     ecut=    60.00 Ry     beta= 0.70
     Davidson diagonalization with overlap
     ethr =  1.16E-05,  avg # of iterations =  1.1

     total cpu time spent up to now is        4.2 secs

     total energy              =      -8.41727187 Ry
     estimated scf accuracy    <       0.00000088 Ry

     iteration #  4     ecut=    60.00 Ry     beta= 0.70
     Davidson diagonalization with overlap
     ethr =  2.19E-08,  avg # of iterations =  2.4

     total cpu time spent up to now is        4.5 secs

     total energy              =      -8.41727236 Ry
     estimated scf accuracy    <       0.00000004 Ry

     iteration #  5     ecut=    60.00 Ry     beta= 0.70
     Davidson diagonalization with overlap
     ethr =  9.04E-10,  avg # of iterations =  1.7

     total cpu time spent up to now is        4.6 secs

     End of self-consistent calculation

          k = 0.0000 0.0000 0.0000 (   531 PWs)   bands (ev):

    -1.5886  30.7892  30.7892  30.7892  34.0384  34.0384

          k =-0.1698 0.1698-0.1698 (   519 PWs)   bands (ev):

    -0.5325  23.0719  29.4823  29.4823  34.7563  36.0834

          k =-0.3395 0.3395-0.3395 (   504 PWs)   bands (ev):

     2.5925  14.6241  28.7744  28.7744  32.3467  32.3467

          k = 0.5093-0.5093 0.5093 (   502 PWs)   bands (ev):

     7.2881   8.1197  29.3103  29.3103  30.1414  30.1414

          k = 0.0000 0.3395-0.0000 (   516 PWs)   bands (ev):

    -0.1821  26.2384  26.3949  26.3949  31.0450  31.9283

          k =-0.1698 0.5093-0.1698 (   503 PWs)   bands (ev):

     2.2480  18.0448  24.9953  25.8611  27.5703  34.3921

          k = 0.6790-0.3395 0.6790 (   508 PWs)   bands (ev):

     6.6400  10.7194  22.6153  25.3120  28.1055  35.8712

          k = 0.5093-0.1698 0.5093 (   507 PWs)   bands (ev):

     4.9762  12.9429  21.1511  27.3698  30.3828  34.3916

          k = 0.3395 0.0000 0.3395 (   513 PWs)   bands (ev):

     1.2116  19.9452  22.3930  31.1530  33.5428  34.1864

          k = 0.0000 0.6790-0.0000 (   500 PWs)   bands (ev):

     3.9561  20.0247  22.1324  22.9781  22.9781  28.8615

          k = 0.8488-0.1698 0.8488 (   503 PWs)   bands (ev):

     7.6116  15.1477  16.2955  22.7013  24.9047  32.3404

          k = 0.6790 0.0000 0.6790 (   506 PWs)   bands (ev):

     9.2733  12.2166  14.8726  24.1607  26.8968  39.7895

          k =-0.0000-1.0185 0.0000 (   492 PWs)   bands (ev):

     9.6571  11.9602  20.7236  21.8357  21.8357  27.6455

          k = 0.6790-0.3395 1.0185 (   507 PWs)   bands (ev):

     5.3108  16.0761  18.5419  21.7005  31.5333  34.5081

          k = 0.5093-0.1698 0.8488 (   500 PWs)   bands (ev):

     9.8801  10.6683  17.9048  19.5211  33.5816  33.9795

          k =-0.3395-1.0185-0.0000 (   506 PWs)   bands (ev):

    10.9349  13.1499  14.7852  17.8589  30.3393  33.6037

     the Fermi energy is    17.3019 ev

!    total energy              =      -8.41727237 Ry
     estimated scf accuracy    <          1.0E-09 Ry

     The total energy is the sum of the following terms:
     one-electron contribution =       6.55837650 Ry
     hartree contribution      =       0.01852559 Ry
     xc contribution           =      -3.47254312 Ry
     ewald contribution        =     -11.52163134 Ry

     convergence has been achieved in   5 iterations

     Forces acting on atoms (cartesian axes, Ry/au):

     atom    1 type  1   force =     0.00000000    0.00000000    0.00000000

     Total force =     0.000000     Total SCF correction =     0.000000


     Computing stress (Cartesian axis) and pressure

          total   stress  (Ry/bohr**3)                   (kbar)     P=      700.05
   0.00475881  -0.00000000  -0.00000000          700.05       -0.00       -0.00
  -0.00000000   0.00475881   0.00000000           -0.00      700.05        0.00
  -0.00000000  -0.00000000   0.00475881           -0.00       -0.00      700.05


     Writing all to output data dir ./tmp/vcrelax.save/ :
     XML data file, charge density, pseudopotentials, collected wavefunctions

     init_run     :      0.58s CPU      0.59s WALL (       2 calls)
     electrons    :      3.04s CPU      3.11s WALL (       6 calls)
     update_pot   :      0.01s CPU      0.01s WALL (       4 calls)
     forces       :      0.16s CPU      0.16s WALL (       6 calls)
     stress       :      0.73s CPU      0.75s WALL (       6 calls)

     Called by init_run:
     wfcinit      :      0.13s CPU      0.14s WALL (       2 calls)
     potinit      :      0.05s CPU      0.05s WALL (       2 calls)
     hinit0       :      0.39s CPU      0.39s WALL (       2 calls)

     Called by electrons:
     c_bands      :      2.08s CPU      2.14s WALL (      20 calls)
     sum_band     :      0.93s CPU      0.93s WALL (      20 calls)
     v_of_rho     :      0.03s CPU      0.03s WALL (      22 calls)
     mix_rho      :      0.01s CPU      0.01s WALL (      20 calls)

     Called by c_bands:
     init_us_2    :      0.13s CPU      0.13s WALL (     864 calls)
     init_us_2:cp :      0.13s CPU      0.13s WALL (     864 calls)
     cegterg      :      1.89s CPU      1.95s WALL (     320 calls)

     Called by *egterg:
     cdiaghg      :      0.09s CPU      0.09s WALL (    1203 calls)
     h_psi        :      1.66s CPU      1.72s WALL (    1363 calls)
     g_psi        :      0.01s CPU      0.01s WALL (    1011 calls)

     Called by h_psi:
     h_psi:calbec :      0.11s CPU      0.12s WALL (    1363 calls)
     vloc_psi     :      1.45s CPU      1.51s WALL (    1363 calls)
     add_vuspsi   :      0.08s CPU      0.08s WALL (    1363 calls)

     General routines
     calbec       :      0.20s CPU      0.20s WALL (    1843 calls)
     fft          :      0.21s CPU      0.21s WALL (     116 calls)
     ffts         :      0.00s CPU      0.00s WALL (      20 calls)
     fftw         :      1.42s CPU      1.47s WALL (   14198 calls)


     PWSCF        :      4.64s CPU      4.76s WALL


   This run was terminated on:  22:22:58  15Dec2024            

=------------------------------------------------------------------------------=
   JOB DONE.
=------------------------------------------------------------------------------=
