
     Program PWSCF v.7.3 starts on 15Dec2024 at 22:20:25 

     This program is part of the open-source Quantum ESPRESSO suite
     for quantum simulation of materials; please cite
         "P. Giannozzi et al., J. Phys.:Condens. Matter 21 395502 (2009);
         "P. Giannozzi et al., J. Phys.:Condens. Matter 29 465901 (2017);
         "P. Giannozzi et al., J. Chem. Phys. 152 154105 (2020);
          URL http://www.quantum-espresso.org", 
     in publications or presentations arising from this work. More details at
     http://www.quantum-espresso.org/quote

     Serial version
     5193 MiB available memory on the printing compute node when the environment starts

     Waiting for input...
     Reading input from standard input
     Message from routine read_cards :
     DEPRECATED: no units specified in ATOMIC_POSITIONS card
     Message from routine read_cards :
     ATOMIC_POSITIONS: units set to alat

     Current dimensions of program PWSCF are:
     Max number of different atomic species (ntypx) = 10
     Max number of k-points (npk) =  40000
     Max angular momentum in pseudopotentials (lmaxx) =  4
     Message from routine iosys:
     BEWARE:  force calculation with tetrahedra (not recommanded)
     Message from routine iosys:
     BEWARE: stress calculation with tetrahedra (not recommanded)
     [opt_tetra]  Optimized tetrahedron method is used.


     G-vector sticks info
     --------------------
     sticks:   dense  smooth     PW     G-vecs:    dense   smooth      PW
     Sum         421     421    127                 5577     5577     965

     Using Slab Decomposition



     bravais-lattice index     =            2
     lattice parameter (alat)  =       7.0380  a.u.
     unit-cell volume          =      87.1541 (a.u.)^3
     number of atoms/cell      =            1
     number of atomic types    =            1
     number of electrons       =         4.00
     number of Kohn-Sham states=            6
     kinetic-energy cutoff     =      60.0000  Ry
     charge density cutoff     =     240.0000  Ry
     scf convergence threshold =      1.0E-06
     mixing beta               =       0.7000
     number of iterations used =            8  plain     mixing
     energy convergence thresh.=      1.0E-04
     force convergence thresh. =      1.0E-03
     press convergence thresh. =      5.0E-01
     Exchange-correlation= SLA  PW   NOGX NOGC
                           (   1   4   0   0   0   0   0)
     nstep                     =           50


     celldm(1)=   7.038000  celldm(2)=   0.000000  celldm(3)=   0.000000
     celldm(4)=   0.000000  celldm(5)=   0.000000  celldm(6)=   0.000000

     crystal axes: (cart. coord. in units of alat)
               a(1) = (  -0.500000   0.000000   0.500000 )  
               a(2) = (   0.000000   0.500000   0.500000 )  
               a(3) = (  -0.500000   0.500000   0.000000 )  

     reciprocal axes: (cart. coord. in units 2 pi/alat)
               b(1) = ( -1.000000 -1.000000  1.000000 )  
               b(2) = (  1.000000  1.000000  1.000000 )  
               b(3) = ( -1.000000  1.000000 -1.000000 )  


     PseudoPot. # 1 for Si read from file:
     ./PSEUDO/Si.LDA.upf
     MD5 check sum: 9e2d726316af3d4752eea8ab0afbb951
     Pseudo is Norm-conserving + core correction, Zval =  4.0
     Generated using ONCVPSP code by D. R. Hamann
     Using radial grid of 1510 points,  6 beta functions with: 
                l(1) =   0
                l(2) =   0
                l(3) =   1
                l(4) =   1
                l(5) =   2
                l(6) =   2

     atomic species   valence    mass     pseudopotential
     Si                4.00    28.76000     Si( 1.00)

     48 Sym. Ops., with inversion, found



   Cartesian axes

     site n.     atom                  positions (alat units)
         1        Si     tau(   1) = (   0.0000000   0.0000000   0.0000000  )

     number of k points=    16 (tetrahedron method)
                       cart. coord. in units 2pi/alat
        k(    1) = (   0.0000000   0.0000000   0.0000000), wk =   0.0092593
        k(    2) = (  -0.1666667   0.1666667  -0.1666667), wk =   0.0740741
        k(    3) = (  -0.3333333   0.3333333  -0.3333333), wk =   0.0740741
        k(    4) = (   0.5000000  -0.5000000   0.5000000), wk =   0.0370370
        k(    5) = (   0.0000000   0.3333333   0.0000000), wk =   0.0555556
        k(    6) = (  -0.1666667   0.5000000  -0.1666667), wk =   0.2222222
        k(    7) = (   0.6666667  -0.3333333   0.6666667), wk =   0.2222222
        k(    8) = (   0.5000000  -0.1666667   0.5000000), wk =   0.2222222
        k(    9) = (   0.3333333   0.0000000   0.3333333), wk =   0.1111111
        k(   10) = (   0.0000000   0.6666667   0.0000000), wk =   0.0555556
        k(   11) = (   0.8333333  -0.1666667   0.8333333), wk =   0.2222222
        k(   12) = (   0.6666667   0.0000000   0.6666667), wk =   0.1111111
        k(   13) = (   0.0000000  -1.0000000   0.0000000), wk =   0.0277778
        k(   14) = (   0.6666667  -0.3333333   1.0000000), wk =   0.2222222
        k(   15) = (   0.5000000  -0.1666667   0.8333333), wk =   0.2222222
        k(   16) = (  -0.3333333  -1.0000000   0.0000000), wk =   0.1111111

     Dense  grid:     5577 G-vectors     FFT dimensions: (  25,  25,  25)

     Estimated max dynamical RAM per process >       7.39 MB

     Initial potential from superposition of free atoms

     starting charge       3.9994, renormalised to       4.0000
     Starting wfcs are    4 randomized atomic wfcs +    2 random wfcs

     total cpu time spent up to now is        0.4 secs

     Self-consistent Calculation

     iteration #  1     ecut=    60.00 Ry     beta= 0.70
     Davidson diagonalization with overlap
     ethr =  1.00E-02,  avg # of iterations =  5.6

     Threshold (ethr) on eigenvalues was too large:
     Diagonalizing with lowered threshold

     Davidson diagonalization with overlap
     ethr =  1.20E-04,  avg # of iterations =  3.6

     total cpu time spent up to now is        0.8 secs

     total energy              =      -8.46454545 Ry
     estimated scf accuracy    <       0.00469154 Ry

     iteration #  2     ecut=    60.00 Ry     beta= 0.70
     Davidson diagonalization with overlap
     ethr =  1.17E-04,  avg # of iterations =  1.4

     total cpu time spent up to now is        0.9 secs

     total energy              =      -8.46460419 Ry
     estimated scf accuracy    <       0.00024232 Ry

     iteration #  3     ecut=    60.00 Ry     beta= 0.70
     Davidson diagonalization with overlap
     ethr =  6.06E-06,  avg # of iterations =  2.9

     total cpu time spent up to now is        1.2 secs

     total energy              =      -8.46462300 Ry
     estimated scf accuracy    <       0.00000114 Ry

     iteration #  4     ecut=    60.00 Ry     beta= 0.70
     Davidson diagonalization with overlap
     ethr =  2.84E-08,  avg # of iterations =  2.5

     total cpu time spent up to now is        1.3 secs

     End of self-consistent calculation

          k = 0.0000 0.0000 0.0000 (   701 PWs)   bands (ev):

    -3.3394  24.4916  24.4916  24.5262  24.5262  24.5262

          k =-0.1667 0.1667-0.1667 (   673 PWs)   bands (ev):

    -2.4700  17.2228  22.3152  22.3153  26.3843  27.2322

          k =-0.3333 0.3333-0.3333 (   685 PWs)   bands (ev):

     0.1150  10.1312  21.5055  21.5055  24.9026  24.9027

          k = 0.5000-0.5000 0.5000 (   700 PWs)   bands (ev):

     4.2106   4.4961  21.6612  21.6612  23.3270  23.3270

          k = 0.0000 0.3333 0.0000 (   681 PWs)   bands (ev):

    -2.1810  19.6429  19.6430  20.8842  22.2760  24.7625

          k =-0.1667 0.5000-0.1667 (   680 PWs)   bands (ev):

    -0.1702  13.0464  18.4017  19.3004  20.9824  26.0061

          k = 0.6667-0.3333 0.6667 (   678 PWs)   bands (ev):

     3.5061   6.8523  16.5992  18.6418  21.2498  27.7826

          k = 0.5000-0.1667 0.5000 (   684 PWs)   bands (ev):

     2.1023   8.7533  15.3159  20.3264  23.1200  26.6670

          k = 0.3333 0.0000 0.3333 (   682 PWs)   bands (ev):

    -1.0295  14.9079  16.0538  23.1854  26.2973  26.7199

          k = 0.0000 0.6667 0.0000 (   693 PWs)   bands (ev):

     1.2524  14.5430  16.6586  16.6586  17.5603  20.6798

          k = 0.8333-0.1667 0.8333 (   686 PWs)   bands (ev):

     4.3319  10.8636  11.1302  16.4085  18.7637  24.1997

          k = 0.6667 0.0000 0.6667 (   680 PWs)   bands (ev):

     5.7363   8.4408   9.7852  17.6491  20.2549  30.7054

          k = 0.0000-1.0000 0.0000 (   692 PWs)   bands (ev):

     6.2751   7.5488  15.6599  15.6599  16.4161  19.6472

          k = 0.6667-0.3333 1.0000 (   687 PWs)   bands (ev):

     2.3836  11.6867  12.9738  15.6081  24.5703  25.6760

          k = 0.5000-0.1667 0.8333 (   692 PWs)   bands (ev):

     6.4579   6.6481  13.0945  13.3722  25.4471  26.4710

          k =-0.3333-1.0000 0.0000 (   690 PWs)   bands (ev):

     7.3581   8.6647  10.6078  11.9323  23.5491  24.9615

     the Fermi energy is    12.2516 ev

!    total energy              =      -8.46462373 Ry
     estimated scf accuracy    <          2.6E-09 Ry

     The total energy is the sum of the following terms:
     one-electron contribution =       5.15998440 Ry
     hartree contribution      =       0.02474527 Ry
     xc contribution           =      -3.22625122 Ry
     ewald contribution        =     -10.42310219 Ry

     convergence has been achieved in   4 iterations

     Forces acting on atoms (cartesian axes, Ry/au):

     atom    1 type  1   force =     0.00000000    0.00000000    0.00000000

     Total force =     0.000000     Total SCF correction =     0.000000


     Computing stress (Cartesian axis) and pressure

          total   stress  (Ry/bohr**3)                   (kbar)     P=       99.82
   0.00067856  -0.00000000  -0.00000000           99.82       -0.00       -0.00
  -0.00000000   0.00067856   0.00000000           -0.00       99.82        0.00
  -0.00000000   0.00000000   0.00067856           -0.00        0.00       99.82


     BFGS Geometry Optimization
     Energy error            =      0.0E+00 Ry
     Gradient error          =      0.0E+00 Ry/Bohr
     Cell gradient error     =      1.0E+02 kbar

     number of scf cycles    =   1
     number of bfgs steps    =   0

     enthalpy           new  =      -8.3461314341 Ry

     new trust radius        =       0.0317885419 bohr
     new conv_thr            =       0.0000010000 Ry

     new unit-cell volume =     82.77796 a.u.^3 (    12.26643 Ang^3 )
     density =      3.89332 g/cm^3

CELL_PARAMETERS (alat=  7.03800000)
  -0.491487312   0.000000000   0.491487312
  -0.000000000   0.491487312   0.491487312
  -0.491487312   0.491487312   0.000000000

ATOMIC_POSITIONS (alat)
Si              -0.0000000000        0.0000000000        0.0000000000



     Writing config-only to output data dir ./tmp/vcrelax.save/ :
     XML data file
     NEW-OLD atomic charge density approx. for the potential

     total cpu time spent up to now is        1.4 secs

     Self-consistent Calculation

     iteration #  1     ecut=    60.00 Ry     beta= 0.70
     Davidson diagonalization with overlap
     ethr =  1.00E-06,  avg # of iterations =  5.4

     total cpu time spent up to now is        2.0 secs

     total energy              =      -8.46078814 Ry
     estimated scf accuracy    <       0.00001129 Ry

     iteration #  2     ecut=    60.00 Ry     beta= 0.70
     Davidson diagonalization with overlap
     ethr =  2.82E-07,  avg # of iterations =  1.0

     total cpu time spent up to now is        2.1 secs

     End of self-consistent calculation

          k = 0.0000 0.0000 0.0000 (   701 PWs)   bands (ev):

    -3.0773  25.4805  25.4805  26.0012  26.0012  26.0012

          k =-0.1696 0.1696-0.1696 (   673 PWs)   bands (ev):

    -2.1777  18.1574  23.4831  23.4831  27.6866  28.5650

          k =-0.3391 0.3391-0.3391 (   685 PWs)   bands (ev):

     0.4959  10.8349  22.6948  22.6948  26.0112  26.0112

          k = 0.5087-0.5087 0.5087 (   700 PWs)   bands (ev):

     4.8244   4.9205  22.9705  22.9705  24.2674  24.2674

          k = 0.0000 0.3391 0.0000 (   681 PWs)   bands (ev):

    -1.8787  20.7111  20.7111  21.7261  23.7456  25.7610

          k =-0.1696 0.5087-0.1696 (   680 PWs)   bands (ev):

     0.2005  13.8397  19.4374  20.4384  21.9096  27.2747

          k = 0.6782-0.3391 0.6782 (   678 PWs)   bands (ev):

     4.0015   7.4470  17.5731  19.6933  22.2713  29.0276

          k = 0.5087-0.1696 0.5087 (   684 PWs)   bands (ev):

     2.5499   9.4071  16.2405  21.4503  24.2215  27.8544

          k = 0.3391 0.0000 0.3391 (   682 PWs)   bands (ev):

    -0.6878  15.7025  17.0593  24.4893  27.5133  27.7911

          k = 0.0000 0.6782 0.0000 (   693 PWs)   bands (ev):

     1.6698  15.4468  17.6409  17.6409  18.2795  21.8746

          k = 0.8478-0.1696 0.8478 (   686 PWs)   bands (ev):

     4.8461  11.6195  11.8725  17.3856  19.6947  25.4323

          k = 0.6782 0.0000 0.6782 (   680 PWs)   bands (ev):

     6.3033   9.0226  10.5808  18.6672  21.2606  32.1156

          k = 0.0000-1.0173 0.0000 (   692 PWs)   bands (ev):

     6.7900   8.2719  16.6147  16.6147  17.0937  20.8323

          k = 0.6782-0.3391 1.0173 (   687 PWs)   bands (ev):

     2.8391  12.3729  13.8860  16.5190  25.6589  27.0215

          k = 0.5087-0.1696 0.8478 (   692 PWs)   bands (ev):

     7.1306   7.1456  14.0722  14.0871  26.7116  27.6408

          k =-0.3391-1.0173-0.0000 (   690 PWs)   bands (ev):

     7.9062   9.4342  11.2589  12.7878  24.6063  26.2816

     the Fermi energy is    13.0668 ev

!    total energy              =      -8.46078844 Ry
     estimated scf accuracy    <       0.00000046 Ry

     The total energy is the sum of the following terms:
     one-electron contribution =       5.38645291 Ry
     hartree contribution      =       0.02104728 Ry
     xc contribution           =      -3.26465561 Ry
     ewald contribution        =     -10.60363303 Ry

     convergence has been achieved in   2 iterations

     Forces acting on atoms (cartesian axes, Ry/au):

     atom    1 type  1   force =     0.00000000    0.00000000    0.00000000

     Total force =     0.000000     Total SCF correction =     0.000000


     Computing stress (Cartesian axis) and pressure

          total   stress  (Ry/bohr**3)                   (kbar)     P=      159.64
   0.00108524   0.00000000   0.00000000          159.64        0.00        0.00
   0.00000000   0.00108524   0.00000000            0.00      159.64        0.00
   0.00000000   0.00000000   0.00108524            0.00        0.00      159.64

     Energy error            =      2.1E-03 Ry
     Gradient error          =      0.0E+00 Ry/Bohr
     Cell gradient error     =      4.0E+01 kbar

     number of scf cycles    =   2
     number of bfgs steps    =   1

     enthalpy           old  =      -8.3461314341 Ry
     enthalpy           new  =      -8.3482458176 Ry

     CASE: enthalpy          _new < enthalpy          _old

     new trust radius        =       0.0200846335 bohr
     new conv_thr            =       0.0000000100 Ry

     new unit-cell volume =     80.06708 a.u.^3 (    11.86472 Ang^3 )
     density =      4.02514 g/cm^3

CELL_PARAMETERS (alat=  7.03800000)
  -0.486062448   0.000000000   0.486062448
  -0.000000000   0.486062448   0.486062448
  -0.486062448   0.486062448   0.000000000

ATOMIC_POSITIONS (alat)
Si              -0.0000000000        0.0000000000        0.0000000000



     Writing config-only to output data dir ./tmp/vcrelax.save/ :
     XML data file
     NEW-OLD atomic charge density approx. for the potential

     total cpu time spent up to now is        2.4 secs

     Self-consistent Calculation

     iteration #  1     ecut=    60.00 Ry     beta= 0.70
     Davidson diagonalization with overlap
     ethr =  1.00E-06,  avg # of iterations =  4.7

     total cpu time spent up to now is        2.6 secs

     total energy              =      -8.45802242 Ry
     estimated scf accuracy    <       0.00005855 Ry

     iteration #  2     ecut=    60.00 Ry     beta= 0.70
     Davidson diagonalization with overlap
     ethr =  1.46E-06,  avg # of iterations =  1.0

     total cpu time spent up to now is        2.7 secs

     total energy              =      -8.45802319 Ry
     estimated scf accuracy    <       0.00000248 Ry

     iteration #  3     ecut=    60.00 Ry     beta= 0.70
     Davidson diagonalization with overlap
     ethr =  6.19E-08,  avg # of iterations =  1.6

     total cpu time spent up to now is        3.0 secs

     End of self-consistent calculation

          k = 0.0000 0.0000 0.0000 (   701 PWs)   bands (ev):

    -2.9037  26.1311  26.1311  26.9752  26.9752  26.9752

          k =-0.1714 0.1714-0.1714 (   673 PWs)   bands (ev):

    -1.9844  18.7692  24.2417  24.2417  28.5486  29.4540

          k =-0.3429 0.3429-0.3429 (   685 PWs)   bands (ev):

     0.7470  11.2987  23.4683  23.4683  26.7536  26.7536

          k = 0.5143-0.5143 0.5143 (   700 PWs)   bands (ev):

     5.2050   5.2253  23.8342  23.8342  24.8900  24.8900

          k = 0.0000 0.3429 0.0000 (   681 PWs)   bands (ev):

    -1.6789  21.4124  21.4124  22.2803  24.7163  26.4273

          k =-0.1714 0.5143-0.1714 (   680 PWs)   bands (ev):

     0.4452  14.3602  20.1192  21.1716  22.5394  28.1215

          k = 0.6858-0.3429 0.6858 (   678 PWs)   bands (ev):

     4.3257   7.8414  18.2096  20.3848  22.9575  29.8529

          k = 0.5143-0.1714 0.5143 (   684 PWs)   bands (ev):

     2.8443   9.8383  16.8487  22.1863  24.9573  28.6425

          k = 0.3429 0.0000 0.3429 (   682 PWs)   bands (ev):

    -0.4621  16.2245  17.7205  25.3365  28.3209  28.4959

          k = 0.0000 0.6858 0.0000 (   693 PWs)   bands (ev):

     1.9449  16.0328  18.2898  18.2898  18.7527  22.6859

          k = 0.8572-0.1714 0.8572 (   686 PWs)   bands (ev):

     5.1837  12.0754  12.4017  18.0313  20.3163  26.2554

          k = 0.6858 0.0000 0.6858 (   680 PWs)   bands (ev):

     6.6728   9.4071  11.1080  19.3384  21.9327  33.0478

          k = 0.0000-1.0287 0.0000 (   692 PWs)   bands (ev):

     7.1314   8.7425  17.2465  17.2465  17.5393  21.6323

          k = 0.6858-0.3429 1.0287 (   687 PWs)   bands (ev):

     3.1387  12.8248  14.4810  17.1285  26.3765  27.9188

          k = 0.5143-0.1714 0.8572 (   692 PWs)   bands (ev):

     7.4771   7.5679  14.5609  14.7211  27.5484  28.4138

          k =-0.3429-1.0287 0.0000 (   690 PWs)   bands (ev):

     8.2689   9.9268  11.6880  13.3697  25.3044  27.1613

     the Fermi energy is    13.5910 ev

!    total energy              =      -8.45802340 Ry
     estimated scf accuracy    <          1.5E-09 Ry

     The total energy is the sum of the following terms:
     one-electron contribution =       5.53443549 Ry
     hartree contribution      =       0.01830817 Ry
     xc contribution           =      -3.28878861 Ry
     ewald contribution        =     -10.72197846 Ry

     convergence has been achieved in   3 iterations

     Forces acting on atoms (cartesian axes, Ry/au):

     atom    1 type  1   force =     0.00000000    0.00000000    0.00000000

     Total force =     0.000000     Total SCF correction =     0.000000


     Computing stress (Cartesian axis) and pressure

          total   stress  (Ry/bohr**3)                   (kbar)     P=      170.04
   0.00115594   0.00000000   0.00000000          170.04        0.00        0.00
   0.00000000   0.00115594  -0.00000000            0.00      170.04       -0.00
   0.00000000  -0.00000000   0.00115594            0.00       -0.00      170.04

     Energy error            =      9.2E-04 Ry
     Gradient error          =      0.0E+00 Ry/Bohr
     Cell gradient error     =      3.0E+01 kbar

     number of scf cycles    =   3
     number of bfgs steps    =   2

     enthalpy           old  =      -8.3482458176 Ry
     enthalpy           new  =      -8.3491664143 Ry

     CASE: enthalpy          _new < enthalpy          _old

     new trust radius        =       0.0299602235 bohr
     new conv_thr            =       0.0000000100 Ry

     new unit-cell volume =     76.11276 a.u.^3 (    11.27875 Ang^3 )
     density =      4.23426 g/cm^3

CELL_PARAMETERS (alat=  7.03800000)
  -0.477925152  -0.000000000   0.477925152
  -0.000000000   0.477925152   0.477925152
  -0.477925152   0.477925152  -0.000000000

ATOMIC_POSITIONS (alat)
Si              -0.0000000000        0.0000000000        0.0000000000



     Writing config-only to output data dir ./tmp/vcrelax.save/ :
     XML data file
     NEW-OLD atomic charge density approx. for the potential

     total cpu time spent up to now is        3.2 secs

     Self-consistent Calculation

     iteration #  1     ecut=    60.00 Ry     beta= 0.70
     Davidson diagonalization with overlap
     ethr =  1.00E-06,  avg # of iterations =  5.4

     total cpu time spent up to now is        3.7 secs

     total energy              =      -8.45234761 Ry
     estimated scf accuracy    <       0.00000985 Ry

     iteration #  2     ecut=    60.00 Ry     beta= 0.70
     Davidson diagonalization with overlap
     ethr =  2.46E-07,  avg # of iterations =  1.0

     total cpu time spent up to now is        3.9 secs

     total energy              =      -8.45234775 Ry
     estimated scf accuracy    <       0.00000055 Ry

     iteration #  3     ecut=    60.00 Ry     beta= 0.70
     Davidson diagonalization with overlap
     ethr =  1.39E-08,  avg # of iterations =  1.8

     total cpu time spent up to now is        4.3 secs

     End of self-consistent calculation

          k = 0.0000 0.0000 0.0000 (   701 PWs)   bands (ev):

    -2.6215  27.1631  27.1631  28.5276  28.5276  28.5276

          k =-0.1744 0.1744-0.1744 (   673 PWs)   bands (ev):

    -1.6714  19.7329  25.4300  25.4300  29.9186  30.8894

          k =-0.3487 0.3487-0.3487 (   685 PWs)   bands (ev):

     1.1497  12.0343  24.6803  24.6803  27.9481  27.9481

          k = 0.5231-0.5231 0.5231 (   700 PWs)   bands (ev):

     5.6571   5.8659  25.2155  25.2155  25.8703  25.8703

          k = 0.0000 0.3487 0.0000 (   681 PWs)   bands (ev):

    -1.3557  22.5214  22.5214  23.1583  26.2698  27.4708

          k =-0.1744 0.5231-0.1744 (   680 PWs)   bands (ev):

     0.8379  15.1819  21.1998  22.2995  23.5683  29.4749

          k = 0.6975-0.3487 0.6975 (   678 PWs)   bands (ev):

     4.8392   8.4713  19.2079  21.4796  24.0589  31.1682

          k = 0.5231-0.1744 0.5231 (   684 PWs)   bands (ev):

     3.3132  10.5235  17.8090  23.3477  26.1317  29.8986

          k = 0.3487 0.0000 0.3487 (   682 PWs)   bands (ev):

    -0.0988  17.0511  18.7633  26.6657  29.6052  29.6139

          k = 0.0000 0.6975 0.0000 (   693 PWs)   bands (ev):

     2.3850  16.9452  19.3215  19.3215  19.5027  23.9939

          k = 0.8718-0.1744 0.8718 (   686 PWs)   bands (ev):

     5.7198  12.7682  13.2646  19.0582  21.3098  27.5705

          k = 0.6975 0.0000 0.6975 (   680 PWs)   bands (ev):

     7.2545  10.0219  11.9432  20.4038  23.0062  34.5290

          k = 0.0000-1.0462 0.0000 (   692 PWs)   bands (ev):

     7.6797   9.4758  18.2461  18.2528  18.2528  22.9158

          k = 0.6975-0.3487 1.0462 (   687 PWs)   bands (ev):

     3.6163  13.5431  15.4091  18.1086  27.5156  29.3494

          k = 0.5231-0.1744 0.8718 (   692 PWs)   bands (ev):

     8.0029   8.2610  15.3041  15.7645  28.8767  29.6400

          k =-0.3487-1.0462 0.0000 (   690 PWs)   bands (ev):

     8.8502  10.6814  12.3709  14.3174  26.4136  28.5622

     the Fermi energy is    14.4231 ev

!    total energy              =      -8.45234780 Ry
     estimated scf accuracy    <          1.7E-09 Ry

     The total energy is the sum of the following terms:
     one-electron contribution =       5.76460915 Ry
     hartree contribution      =       0.01693186 Ry
     xc contribution           =      -3.32935475 Ry
     ewald contribution        =     -10.90453406 Ry

     convergence has been achieved in   3 iterations

     Forces acting on atoms (cartesian axes, Ry/au):

     atom    1 type  1   force =     0.00000000    0.00000000    0.00000000

     Total force =     0.000000     Total SCF correction =     0.000000


     Computing stress (Cartesian axis) and pressure

          total   stress  (Ry/bohr**3)                   (kbar)     P=      251.71
   0.00171110   0.00000000   0.00000000          251.71        0.00        0.00
   0.00000000   0.00171110  -0.00000000            0.00      251.71       -0.00
   0.00000000  -0.00000000   0.00171110            0.00       -0.00      251.71

     Energy error            =      3.0E-04 Ry
     Gradient error          =      0.0E+00 Ry/Bohr
     Cell gradient error     =      5.2E+01 kbar

     number of scf cycles    =   4
     number of bfgs steps    =   3

     enthalpy           old  =      -8.3491664143 Ry
     enthalpy           new  =      -8.3488670047 Ry

     CASE: enthalpy          _new > enthalpy          _old

     new trust radius        =       0.0108770820 bohr
     new conv_thr            =       0.0000000100 Ry

     new unit-cell volume =     78.60378 a.u.^3 (    11.64788 Ang^3 )
     density =      4.10007 g/cm^3

CELL_PARAMETERS (alat=  7.03800000)
  -0.483083152  -0.000000000   0.483083152
  -0.000000000   0.483083152   0.483083152
  -0.483083152   0.483083152   0.000000000

ATOMIC_POSITIONS (alat)
Si              -0.0000000000        0.0000000000        0.0000000000



     Writing config-only to output data dir ./tmp/vcrelax.save/ :
     XML data file
     NEW-OLD atomic charge density approx. for the potential

     total cpu time spent up to now is        4.6 secs

     Self-consistent Calculation

     iteration #  1     ecut=    60.00 Ry     beta= 0.70
     Davidson diagonalization with overlap
     ethr =  1.00E-06,  avg # of iterations =  4.6

     total cpu time spent up to now is        5.3 secs

     total energy              =      -8.45618980 Ry
     estimated scf accuracy    <       0.00000483 Ry

     iteration #  2     ecut=    60.00 Ry     beta= 0.70
     Davidson diagonalization with overlap
     ethr =  1.21E-07,  avg # of iterations =  1.1

     total cpu time spent up to now is        5.6 secs

     total energy              =      -8.45618992 Ry
     estimated scf accuracy    <       0.00000033 Ry

     iteration #  3     ecut=    60.00 Ry     beta= 0.70
     Davidson diagonalization with overlap
     ethr =  8.18E-09,  avg # of iterations =  1.7

     total cpu time spent up to now is        5.7 secs

     End of self-consistent calculation

          k = 0.0000 0.0000 0.0000 (   701 PWs)   bands (ev):

    -2.8027  26.5027  26.5027  27.5336  27.5336  27.5336

          k =-0.1725 0.1725-0.1725 (   673 PWs)   bands (ev):

    -1.8722  19.1170  24.6718  24.6718  29.0414  29.9681

          k =-0.3450 0.3450-0.3450 (   685 PWs)   bands (ev):

     0.8917  11.5635  23.9071  23.9071  27.1810  27.1810

          k = 0.5175-0.5175 0.5175 (   700 PWs)   bands (ev):

     5.3672   5.4560  24.3307  24.3307  25.2431  25.2431

          k = 0.0000 0.3450 0.0000 (   681 PWs)   bands (ev):

    -1.5631  21.8122  21.8122  22.5964  25.2749  26.8027

          k =-0.1725 0.5175-0.1725 (   680 PWs)   bands (ev):

     0.5861  14.6565  20.5085  21.5835  22.9043  28.6068

          k = 0.6900-0.3450 0.6900 (   678 PWs)   bands (ev):

     4.5107   8.0676  18.5706  20.7793  23.3515  30.3255

          k = 0.5175-0.1725 0.5175 (   684 PWs)   bands (ev):

     3.0130  10.0848  17.1949  22.6055  25.3784  29.0937

          k = 0.3450 0.0000 0.3450 (   682 PWs)   bands (ev):

    -0.3317  16.5223  18.0966  25.8178  28.7824  28.8985

          k = 0.0000 0.6900 0.0000 (   693 PWs)   bands (ev):

     2.1030  16.3635  18.6610  18.6610  19.0226  23.1530

          k = 0.8625-0.1725 0.8625 (   686 PWs)   bands (ev):

     5.3767  12.3273  12.7107  18.4006  20.6725  26.7270

          k = 0.6900 0.0000 0.6900 (   680 PWs)   bands (ev):

     6.8829   9.6278  11.4087  19.7220  22.3176  33.5806

          k = 0.0000-1.0350 0.0000 (   692 PWs)   bands (ev):

     7.3279   9.0082  17.6083  17.6083  17.7937  22.0915

          k = 0.6900-0.3450 1.0350 (   687 PWs)   bands (ev):

     3.3105  13.0832  14.8172  17.4793  26.7864  28.4323

          k = 0.5175-0.1725 0.8625 (   692 PWs)   bands (ev):

     7.6660   7.8180  14.8287  15.0954  28.0262  28.8550

          k =-0.3450-1.0350 0.0000 (   690 PWs)   bands (ev):

     8.4775  10.2020  11.9335  13.7074  25.7034  27.6643

     the Fermi energy is    13.8903 ev

!    total energy              =      -8.45618996 Ry
     estimated scf accuracy    <          7.6E-10 Ry

     The total energy is the sum of the following terms:
     one-electron contribution =       5.61766107 Ry
     hartree contribution      =       0.01765179 Ry
     xc contribution           =      -3.30339923 Ry
     ewald contribution        =     -10.78810360 Ry

     convergence has been achieved in   3 iterations

     Forces acting on atoms (cartesian axes, Ry/au):

     atom    1 type  1   force =     0.00000000    0.00000000    0.00000000

     Total force =     0.000000     Total SCF correction =     0.000000


     Computing stress (Cartesian axis) and pressure

          total   stress  (Ry/bohr**3)                   (kbar)     P=      199.17
   0.00135395  -0.00000000  -0.00000000          199.17       -0.00       -0.00
  -0.00000000   0.00135395   0.00000000           -0.00      199.17        0.00
  -0.00000000   0.00000000   0.00135395           -0.00        0.00      199.17

     Energy error            =      1.6E-04 Ry
     Gradient error          =      0.0E+00 Ry/Bohr
     Cell gradient error     =      8.3E-01 kbar

     number of scf cycles    =   5
     number of bfgs steps    =   3

     enthalpy           old  =      -8.3491664143 Ry
     enthalpy           new  =      -8.3493224267 Ry

     CASE: enthalpy          _new < enthalpy          _old

     new trust radius        =       0.0003068413 bohr
     new conv_thr            =       0.0000000100 Ry

     new unit-cell volume =     78.56299 a.u.^3 (    11.64183 Ang^3 )
     density =      4.10220 g/cm^3

CELL_PARAMETERS (alat=  7.03800000)
  -0.482999557   0.000000000   0.482999557
  -0.000000000   0.482999557   0.482999557
  -0.482999557   0.482999557   0.000000000

ATOMIC_POSITIONS (alat)
Si              -0.0000000000        0.0000000000        0.0000000000



     Writing config-only to output data dir ./tmp/vcrelax.save/ :
     XML data file
     NEW-OLD atomic charge density approx. for the potential

     total cpu time spent up to now is        5.8 secs

     Self-consistent Calculation

     iteration #  1     ecut=    60.00 Ry     beta= 0.70
     Davidson diagonalization with overlap
     ethr =  1.00E-06,  avg # of iterations =  1.0

     Threshold (ethr) on eigenvalues was too large:
     Diagonalizing with lowered threshold

     Davidson diagonalization with overlap
     ethr =  6.06E-12,  avg # of iterations =  4.6

     total cpu time spent up to now is        6.2 secs

     End of self-consistent calculation

          k = 0.0000 0.0000 0.0000 (   701 PWs)   bands (ev):

    -2.7999  26.5132  26.5132  27.5494  27.5494  27.5494

          k =-0.1725 0.1725-0.1725 (   673 PWs)   bands (ev):

    -1.8691  19.1269  24.6839  24.6839  29.0554  29.9826

          k =-0.3451 0.3451-0.3451 (   685 PWs)   bands (ev):

     0.8958  11.5710  23.9195  23.9195  27.1931  27.1931

          k = 0.5176-0.5176 0.5176 (   700 PWs)   bands (ev):

     5.3718   5.4625  24.3447  24.3447  25.2531  25.2531

          k = 0.0000 0.3451 0.0000 (   681 PWs)   bands (ev):

    -1.5598  21.8235  21.8235  22.6053  25.2907  26.8134

          k =-0.1725 0.5176-0.1725 (   680 PWs)   bands (ev):

     0.5901  14.6649  20.5195  21.5951  22.9147  28.6206

          k = 0.6901-0.3451 0.6901 (   678 PWs)   bands (ev):

     4.5160   8.0740  18.5807  20.7905  23.3627  30.3389

          k = 0.5176-0.1725 0.5176 (   684 PWs)   bands (ev):

     3.0178  10.0918  17.2047  22.6173  25.3904  29.1065

          k = 0.3451 0.0000 0.3451 (   682 PWs)   bands (ev):

    -0.3280  16.5307  18.1072  25.8314  28.7955  28.9099

          k = 0.0000 0.6901 0.0000 (   693 PWs)   bands (ev):

     2.1075  16.3729  18.6715  18.6715  19.0302  23.1663

          k = 0.8627-0.1725 0.8627 (   686 PWs)   bands (ev):

     5.3822  12.3344  12.7195  18.4111  20.6826  26.7404

          k = 0.6901 0.0000 0.6901 (   680 PWs)   bands (ev):

     6.8888   9.6341  11.4172  19.7328  22.3285  33.5958

          k = 0.0000-1.0352 0.0000 (   692 PWs)   bands (ev):

     7.3335   9.0157  17.6185  17.6185  17.8008  22.1045

          k = 0.6901-0.3451 1.0352 (   687 PWs)   bands (ev):

     3.3154  13.0906  14.8267  17.4892  26.7980  28.4469

          k = 0.5176-0.1725 0.8627 (   692 PWs)   bands (ev):

     7.6713   7.8251  14.8363  15.1060  28.0398  28.8675

          k =-0.3451-1.0352 0.0000 (   690 PWs)   bands (ev):

     8.4834  10.2097  11.9405  13.7170  25.7147  27.6786

     the Fermi energy is    13.8988 ev

!    total energy              =      -8.45613460 Ry
     estimated scf accuracy    <          5.8E-10 Ry

     The total energy is the sum of the following terms:
     one-electron contribution =       5.62001344 Ry
     hartree contribution      =       0.01763585 Ry
     xc contribution           =      -3.30381313 Ry
     ewald contribution        =     -10.78997076 Ry

     convergence has been achieved in   1 iterations

     Forces acting on atoms (cartesian axes, Ry/au):

     atom    1 type  1   force =     0.00000000    0.00000000    0.00000000

     Total force =     0.000000     Total SCF correction =     0.000000


     Computing stress (Cartesian axis) and pressure

          total   stress  (Ry/bohr**3)                   (kbar)     P=      200.03
   0.00135976  -0.00000000  -0.00000000          200.03       -0.00       -0.00
  -0.00000000   0.00135976   0.00000000           -0.00      200.03        0.00
  -0.00000000   0.00000000   0.00135976           -0.00        0.00      200.03

     Energy error            =      1.1E-07 Ry
     Gradient error          =      0.0E+00 Ry/Bohr
     Cell gradient error     =      2.7E-02 kbar

     bfgs converged in   6 scf cycles and   4 bfgs steps
     (criteria: energy <  1.0E-04 Ry, force <  1.0E-03 Ry/Bohr, cell <  5.0E-01 kbar)

     End of BFGS Geometry Optimization

     Final enthalpy           =      -8.3493225341 Ry

     File ./tmp/vcrelax.bfgs deleted, as requested
Begin final coordinates
     new unit-cell volume =     78.56299 a.u.^3 (    11.64183 Ang^3 )
     density =      4.10220 g/cm^3

CELL_PARAMETERS (alat=  7.03800000)
  -0.482999557   0.000000000   0.482999557
  -0.000000000   0.482999557   0.482999557
  -0.482999557   0.482999557   0.000000000

ATOMIC_POSITIONS (alat)
Si              -0.0000000000        0.0000000000        0.0000000000
End final coordinates



     Writing config-only to output data dir ./tmp/vcrelax.save/ :
     XML data file

     Final scf calculation at the relaxed structure.
     The G-vectors are recalculated for the final unit cell
     Results may differ from those at the preceding step.

     G-vector sticks info
     --------------------
     sticks:   dense  smooth     PW     G-vecs:    dense   smooth      PW
     Sum         379     379    121                 4957     4957     941

     Using Slab Decomposition



     bravais-lattice index     =            2
     lattice parameter (alat)  =       7.0380  a.u.
     unit-cell volume          =      78.5630 (a.u.)^3
     number of atoms/cell      =            1
     number of atomic types    =            1
     number of electrons       =         4.00
     number of Kohn-Sham states=            6
     kinetic-energy cutoff     =      60.0000  Ry
     charge density cutoff     =     240.0000  Ry
     scf convergence threshold =      1.0E-08
     mixing beta               =       0.7000
     number of iterations used =            8  plain     mixing
     press convergence thresh. =      5.0E-01
     Exchange-correlation= SLA  PW   NOGX NOGC
                           (   1   4   0   0   0   0   0)

     celldm(1)=   7.038000  celldm(2)=   0.000000  celldm(3)=   0.000000
     celldm(4)=   0.000000  celldm(5)=   0.000000  celldm(6)=   0.000000

     crystal axes: (cart. coord. in units of alat)
               a(1) = (  -0.483000   0.000000   0.483000 )  
               a(2) = (  -0.000000   0.483000   0.483000 )  
               a(3) = (  -0.483000   0.483000   0.000000 )  

     reciprocal axes: (cart. coord. in units 2 pi/alat)
               b(1) = ( -1.035198 -1.035198  1.035198 )  
               b(2) = (  1.035198  1.035198  1.035198 )  
               b(3) = ( -1.035198  1.035198 -1.035198 )  


     PseudoPot. # 1 for Si read from file:
     ./PSEUDO/Si.LDA.upf
     MD5 check sum: 9e2d726316af3d4752eea8ab0afbb951
     Pseudo is Norm-conserving + core correction, Zval =  4.0
     Generated using ONCVPSP code by D. R. Hamann
     Using radial grid of 1510 points,  6 beta functions with: 
                l(1) =   0
                l(2) =   0
                l(3) =   1
                l(4) =   1
                l(5) =   2
                l(6) =   2

     atomic species   valence    mass     pseudopotential
     Si                4.00    28.76000     Si( 1.00)

     48 Sym. Ops., with inversion, found



   Cartesian axes

     site n.     atom                  positions (alat units)
         1        Si     tau(   1) = (  -0.0000000   0.0000000   0.0000000  )

     number of k points=    16 (tetrahedron method)
                       cart. coord. in units 2pi/alat
        k(    1) = (   0.0000000   0.0000000   0.0000000), wk =   0.0092593
        k(    2) = (  -0.1725329   0.1725329  -0.1725329), wk =   0.0740741
        k(    3) = (  -0.3450659   0.3450659  -0.3450659), wk =   0.0740741
        k(    4) = (   0.5175988  -0.5175988   0.5175988), wk =   0.0370370
        k(    5) = (   0.0000000   0.3450659   0.0000000), wk =   0.0555556
        k(    6) = (  -0.1725329   0.5175988  -0.1725329), wk =   0.2222222
        k(    7) = (   0.6901318  -0.3450659   0.6901318), wk =   0.2222222
        k(    8) = (   0.5175988  -0.1725329   0.5175988), wk =   0.2222222
        k(    9) = (   0.3450659   0.0000000   0.3450659), wk =   0.1111111
        k(   10) = (   0.0000000   0.6901318   0.0000000), wk =   0.0555556
        k(   11) = (   0.8626647  -0.1725329   0.8626647), wk =   0.2222222
        k(   12) = (   0.6901318   0.0000000   0.6901318), wk =   0.1111111
        k(   13) = (   0.0000000  -1.0351976   0.0000000), wk =   0.0277778
        k(   14) = (   0.6901318  -0.3450659   1.0351976), wk =   0.2222222
        k(   15) = (   0.5175988  -0.1725329   0.8626647), wk =   0.2222222
        k(   16) = (  -0.3450659  -1.0351976   0.0000000), wk =   0.1111111

     Dense  grid:     4957 G-vectors     FFT dimensions: (  24,  24,  24)

     Estimated max dynamical RAM per process >       6.91 MB

     Initial potential from superposition of free atoms

     starting charge       3.9994, renormalised to       4.0000
     Starting wfcs are    4 randomized atomic wfcs +    2 random wfcs

     total cpu time spent up to now is        6.7 secs

     Self-consistent Calculation

     iteration #  1     ecut=    60.00 Ry     beta= 0.70
     Davidson diagonalization with overlap
     c_bands:  1 eigenvalues not converged
     c_bands:  1 eigenvalues not converged
     c_bands:  1 eigenvalues not converged
     c_bands:  1 eigenvalues not converged
     ethr =  1.00E-06,  avg # of iterations = 15.4

     total cpu time spent up to now is        7.1 secs

     total energy              =      -8.45610405 Ry
     estimated scf accuracy    <       0.00590103 Ry

     iteration #  2     ecut=    60.00 Ry     beta= 0.70
     Davidson diagonalization with overlap
     ethr =  1.48E-04,  avg # of iterations =  1.0

     total cpu time spent up to now is        7.3 secs

     total energy              =      -8.45610965 Ry
     estimated scf accuracy    <       0.00032559 Ry

     iteration #  3     ecut=    60.00 Ry     beta= 0.70
     Davidson diagonalization with overlap
     ethr =  8.14E-06,  avg # of iterations =  1.4

     total cpu time spent up to now is        7.5 secs

     total energy              =      -8.45613360 Ry
     estimated scf accuracy    <       0.00000121 Ry

     iteration #  4     ecut=    60.00 Ry     beta= 0.70
     Davidson diagonalization with overlap
     ethr =  3.04E-08,  avg # of iterations =  2.1

     total cpu time spent up to now is        7.7 secs

     total energy              =      -8.45613389 Ry
     estimated scf accuracy    <       0.00000003 Ry

     iteration #  5     ecut=    60.00 Ry     beta= 0.70
     Davidson diagonalization with overlap
     ethr =  6.96E-10,  avg # of iterations =  2.0

     total cpu time spent up to now is        8.2 secs

     End of self-consistent calculation

          k = 0.0000 0.0000 0.0000 (   609 PWs)   bands (ev):

    -2.7999  26.5132  26.5132  27.5495  27.5495  27.5495

          k =-0.1725 0.1725-0.1725 (   610 PWs)   bands (ev):

    -1.8691  19.1269  24.6839  24.6839  29.0554  29.9826

          k =-0.3451 0.3451-0.3451 (   613 PWs)   bands (ev):

     0.8957  11.5710  23.9195  23.9195  27.1931  27.1931

          k = 0.5176-0.5176 0.5176 (   610 PWs)   bands (ev):

     5.3718   5.4625  24.3448  24.3448  25.2531  25.2531

          k = 0.0000 0.3451 0.0000 (   597 PWs)   bands (ev):

    -1.5598  21.8235  21.8235  22.6053  25.2908  26.8134

          k =-0.1725 0.5176-0.1725 (   608 PWs)   bands (ev):

     0.5901  14.6649  20.5195  21.5951  22.9147  28.6206

          k = 0.6901-0.3451 0.6901 (   614 PWs)   bands (ev):

     4.5160   8.0740  18.5807  20.7905  23.3627  30.3389

          k = 0.5176-0.1725 0.5176 (   614 PWs)   bands (ev):

     3.0177  10.0918  17.2047  22.6173  25.3904  29.1065

          k = 0.3451 0.0000 0.3451 (   616 PWs)   bands (ev):

    -0.3280  16.5307  18.1072  25.8315  28.7955  28.9102

          k = 0.0000 0.6901 0.0000 (   624 PWs)   bands (ev):

     2.1075  16.3729  18.6714  18.6714  19.0302  23.1663

          k = 0.8627-0.1725 0.8627 (   623 PWs)   bands (ev):

     5.3822  12.3344  12.7194  18.4111  20.6826  26.7404

          k = 0.6901 0.0000 0.6901 (   614 PWs)   bands (ev):

     6.8888   9.6341  11.4172  19.7328  22.3285  33.5958

          k = 0.0000-1.0352 0.0000 (   636 PWs)   bands (ev):

     7.3335   9.0157  17.6185  17.6185  17.8008  22.1045

          k = 0.6901-0.3451 1.0352 (   624 PWs)   bands (ev):

     3.3154  13.0905  14.8267  17.4892  26.7980  28.4469

          k = 0.5176-0.1725 0.8627 (   620 PWs)   bands (ev):

     7.6713   7.8251  14.8363  15.1060  28.0398  28.8675

          k =-0.3451-1.0352 0.0000 (   618 PWs)   bands (ev):

     8.4834  10.2097  11.9405  13.7170  25.7147  27.6786

     the Fermi energy is    13.8988 ev

!    total energy              =      -8.45613390 Ry
     estimated scf accuracy    <          2.3E-10 Ry

     The total energy is the sum of the following terms:
     one-electron contribution =       5.62001430 Ry
     hartree contribution      =       0.01763618 Ry
     xc contribution           =      -3.30381362 Ry
     ewald contribution        =     -10.78997076 Ry

     convergence has been achieved in   5 iterations

     Forces acting on atoms (cartesian axes, Ry/au):

     atom    1 type  1   force =     0.00000000    0.00000000    0.00000000

     Total force =     0.000000     Total SCF correction =     0.000000


     Computing stress (Cartesian axis) and pressure

          total   stress  (Ry/bohr**3)                   (kbar)     P=      200.05
   0.00135988  -0.00000000  -0.00000000          200.05       -0.00       -0.00
  -0.00000000   0.00135988   0.00000000           -0.00      200.05        0.00
  -0.00000000   0.00000000   0.00135988           -0.00        0.00      200.05


     Writing all to output data dir ./tmp/vcrelax.save/ :
     XML data file, charge density, pseudopotentials, collected wavefunctions

     init_run     :      0.78s CPU      0.79s WALL (       2 calls)
     electrons    :      6.04s CPU      6.30s WALL (       7 calls)
     update_pot   :      0.02s CPU      0.02s WALL (       5 calls)
     forces       :      0.23s CPU      0.25s WALL (       7 calls)
     stress       :      0.74s CPU      0.82s WALL (       7 calls)

     Called by init_run:
     wfcinit      :      0.27s CPU      0.27s WALL (       2 calls)
     potinit      :      0.05s CPU      0.05s WALL (       2 calls)
     hinit0       :      0.45s CPU      0.46s WALL (       2 calls)

     Called by electrons:
     c_bands      :      3.97s CPU      4.15s WALL (      23 calls)
     sum_band     :      2.00s CPU      2.05s WALL (      23 calls)
     v_of_rho     :      0.05s CPU      0.06s WALL (      28 calls)
     mix_rho      :      0.02s CPU      0.02s WALL (      23 calls)

     Called by c_bands:
     init_us_2    :      0.30s CPU      0.32s WALL (     992 calls)
     init_us_2:cp :      0.30s CPU      0.32s WALL (     992 calls)
     cegterg      :      3.55s CPU      3.72s WALL (     368 calls)

     Called by *egterg:
     cdiaghg      :      0.10s CPU      0.11s WALL (    1422 calls)
     h_psi        :      3.10s CPU      3.23s WALL (    1566 calls)
     g_psi        :      0.03s CPU      0.04s WALL (    1166 calls)

     Called by h_psi:
     h_psi:calbec :      0.24s CPU      0.25s WALL (    1566 calls)
     vloc_psi     :      2.59s CPU      2.70s WALL (    1566 calls)
     add_vuspsi   :      0.23s CPU      0.24s WALL (    1566 calls)

     General routines
     calbec       :      0.39s CPU      0.41s WALL (    2126 calls)
     fft          :      0.24s CPU      0.25s WALL (     140 calls)
     ffts         :      0.02s CPU      0.02s WALL (      23 calls)
     fftw         :      2.43s CPU      2.52s WALL (   16324 calls)


     PWSCF        :      7.94s CPU      8.34s WALL


   This run was terminated on:  22:20:33  15Dec2024            

=------------------------------------------------------------------------------=
   JOB DONE.
=------------------------------------------------------------------------------=
