
     Program PWSCF v.7.3 starts on 15Dec2024 at 22: 2:16 

     This program is part of the open-source Quantum ESPRESSO suite
     for quantum simulation of materials; please cite
         "P. Giannozzi et al., J. Phys.:Condens. Matter 21 395502 (2009);
         "P. Giannozzi et al., J. Phys.:Condens. Matter 29 465901 (2017);
         "P. Giannozzi et al., J. Chem. Phys. 152 154105 (2020);
          URL http://www.quantum-espresso.org", 
     in publications or presentations arising from this work. More details at
     http://www.quantum-espresso.org/quote

     Serial version
     5242 MiB available memory on the printing compute node when the environment starts

     Waiting for input...
     Reading input from standard input
     Message from routine read_cards :
     DEPRECATED: no units specified in ATOMIC_POSITIONS card
     Message from routine read_cards :
     ATOMIC_POSITIONS: units set to alat

     Current dimensions of program PWSCF are:
     Max number of different atomic species (ntypx) = 10
     Max number of k-points (npk) =  40000
     Max angular momentum in pseudopotentials (lmaxx) =  4
     Message from routine iosys:
     BEWARE:  force calculation with tetrahedra (not recommanded)
     Message from routine iosys:
     BEWARE: stress calculation with tetrahedra (not recommanded)
     [opt_tetra]  Optimized tetrahedron method is used.


     G-vector sticks info
     --------------------
     sticks:   dense  smooth     PW     G-vecs:    dense   smooth      PW
     Sum         859     859    253                16625    16625    2733

     Using Slab Decomposition



     bravais-lattice index     =            2
     lattice parameter (alat)  =      10.2100  a.u.
     unit-cell volume          =     266.0831 (a.u.)^3
     number of atoms/cell      =            2
     number of atomic types    =            1
     number of electrons       =         8.00
     number of Kohn-Sham states=            8
     kinetic-energy cutoff     =      60.0000  Ry
     charge density cutoff     =     240.0000  Ry
     scf convergence threshold =      1.0E-06
     mixing beta               =       0.7000
     number of iterations used =            8  plain     mixing
     energy convergence thresh.=      1.0E-04
     force convergence thresh. =      1.0E-03
     press convergence thresh. =      5.0E-01
     Exchange-correlation= SLA  PW   NOGX NOGC
                           (   1   4   0   0   0   0   0)
     nstep                     =           50


     celldm(1)=  10.210000  celldm(2)=   0.000000  celldm(3)=   0.000000
     celldm(4)=   0.000000  celldm(5)=   0.000000  celldm(6)=   0.000000

     crystal axes: (cart. coord. in units of alat)
               a(1) = (  -0.500000   0.000000   0.500000 )  
               a(2) = (   0.000000   0.500000   0.500000 )  
               a(3) = (  -0.500000   0.500000   0.000000 )  

     reciprocal axes: (cart. coord. in units 2 pi/alat)
               b(1) = ( -1.000000 -1.000000  1.000000 )  
               b(2) = (  1.000000  1.000000  1.000000 )  
               b(3) = ( -1.000000  1.000000 -1.000000 )  


     PseudoPot. # 1 for Si read from file:
     ./PSEUDO/Si.LDA.upf
     MD5 check sum: 9e2d726316af3d4752eea8ab0afbb951
     Pseudo is Norm-conserving + core correction, Zval =  4.0
     Generated using ONCVPSP code by D. R. Hamann
     Using radial grid of 1510 points,  6 beta functions with: 
                l(1) =   0
                l(2) =   0
                l(3) =   1
                l(4) =   1
                l(5) =   2
                l(6) =   2

     atomic species   valence    mass     pseudopotential
     Si                4.00    28.76000     Si( 1.00)

     48 Sym. Ops., with inversion, found (24 have fractional translation)



   Cartesian axes

     site n.     atom                  positions (alat units)
         1        Si     tau(   1) = (   0.0000000   0.0000000   0.0000000  )
         2        Si     tau(   2) = (   0.2500000   0.2500000   0.2500000  )

     number of k points=    16 (tetrahedron method)
                       cart. coord. in units 2pi/alat
        k(    1) = (   0.0000000   0.0000000   0.0000000), wk =   0.0092593
        k(    2) = (  -0.1666667   0.1666667  -0.1666667), wk =   0.0740741
        k(    3) = (  -0.3333333   0.3333333  -0.3333333), wk =   0.0740741
        k(    4) = (   0.5000000  -0.5000000   0.5000000), wk =   0.0370370
        k(    5) = (   0.0000000   0.3333333   0.0000000), wk =   0.0555556
        k(    6) = (  -0.1666667   0.5000000  -0.1666667), wk =   0.2222222
        k(    7) = (   0.6666667  -0.3333333   0.6666667), wk =   0.2222222
        k(    8) = (   0.5000000  -0.1666667   0.5000000), wk =   0.2222222
        k(    9) = (   0.3333333   0.0000000   0.3333333), wk =   0.1111111
        k(   10) = (   0.0000000   0.6666667   0.0000000), wk =   0.0555556
        k(   11) = (   0.8333333  -0.1666667   0.8333333), wk =   0.2222222
        k(   12) = (   0.6666667   0.0000000   0.6666667), wk =   0.1111111
        k(   13) = (   0.0000000  -1.0000000   0.0000000), wk =   0.0277778
        k(   14) = (   0.6666667  -0.3333333   1.0000000), wk =   0.2222222
        k(   15) = (   0.5000000  -0.1666667   0.8333333), wk =   0.2222222
        k(   16) = (  -0.3333333  -1.0000000   0.0000000), wk =   0.1111111

     Dense  grid:    16625 G-vectors     FFT dimensions: (  36,  36,  36)

     Estimated max dynamical RAM per process >      19.12 MB

     Initial potential from superposition of free atoms

     starting charge       7.9989, renormalised to       8.0000
     Starting wfcs are    8 randomized atomic wfcs

     total cpu time spent up to now is        0.8 secs

     Self-consistent Calculation

     iteration #  1     ecut=    60.00 Ry     beta= 0.70
     Davidson diagonalization with overlap
     ethr =  1.00E-02,  avg # of iterations =  4.1

     Threshold (ethr) on eigenvalues was too large:
     Diagonalizing with lowered threshold

     Davidson diagonalization with overlap
     ethr =  7.12E-04,  avg # of iterations =  1.8

     total cpu time spent up to now is        1.9 secs

     total energy              =     -17.04542233 Ry
     estimated scf accuracy    <       0.06092531 Ry

     iteration #  2     ecut=    60.00 Ry     beta= 0.70
     Davidson diagonalization with overlap
     ethr =  7.62E-04,  avg # of iterations =  1.6

     total cpu time spent up to now is        2.4 secs

     total energy              =     -17.04883459 Ry
     estimated scf accuracy    <       0.00184303 Ry

     iteration #  3     ecut=    60.00 Ry     beta= 0.70
     Davidson diagonalization with overlap
     ethr =  2.30E-05,  avg # of iterations =  3.8

     total cpu time spent up to now is        3.0 secs

     total energy              =     -17.04895957 Ry
     estimated scf accuracy    <       0.00004483 Ry

     iteration #  4     ecut=    60.00 Ry     beta= 0.70
     Davidson diagonalization with overlap
     ethr =  5.60E-07,  avg # of iterations =  3.2

     total cpu time spent up to now is        3.7 secs

     End of self-consistent calculation

          k = 0.0000 0.0000 0.0000 (  2085 PWs)   bands (ev):

    -5.8635   6.2046   6.2046   6.2046   8.7423   8.7423   8.7423   9.5475

          k =-0.1667 0.1667-0.1667 (  2088 PWs)   bands (ev):

    -5.4977   3.7929   5.7475   5.7475   8.5092   9.3968   9.3968  11.6313

          k =-0.3333 0.3333-0.3333 (  2090 PWs)   bands (ev):

    -4.4669   0.8043   5.1939   5.1939   7.9064   9.6803   9.6803  13.9448

          k = 0.5000-0.5000 0.5000 (  2060 PWs)   bands (ev):

    -3.4893  -0.8610   4.9953   4.9953   7.6780   9.5035   9.5035  13.7538

          k = 0.0000 0.3333 0.0000 (  2061 PWs)   bands (ev):

    -5.3733   4.1568   4.9903   4.9903   7.8375  10.4558  10.5434  10.5434

          k =-0.1667 0.5000-0.1667 (  2090 PWs)   bands (ev):

    -4.5469   1.7280   4.1748   4.4320   8.0942  10.2231  10.6853  11.2699

          k = 0.6667-0.3333 0.6667 (  2092 PWs)   bands (ev):

    -3.3321  -0.4781   3.3781   4.4047   8.1654  10.2781  10.8029  12.5849

          k = 0.5000-0.1667 0.5000 (  2082 PWs)   bands (ev):

    -3.7259   0.1331   3.0992   4.8927   8.5937  10.2733  10.4091  13.4448

          k = 0.3333 0.0000 0.3333 (  2083 PWs)   bands (ev):

    -4.9015   2.4568   3.7362   5.6365   9.2162   9.7440  10.0030  11.8165

          k = 0.0000 0.6667 0.0000 (  2080 PWs)   bands (ev):

    -3.9353   1.1674   3.7512   3.7512   6.8211   8.0829  13.4675  13.4676

          k = 0.8333-0.1667 0.8333 (  2092 PWs)   bands (ev):

    -2.7540  -0.4020   2.4942   3.6141   7.1529   8.8385  13.6536  13.6691

          k = 0.6667 0.0000 0.6667 (  2091 PWs)   bands (ev):

    -2.5483  -0.6148   1.6907   4.0638   7.6685  11.9422  12.6787  13.2629

          k = 0.0000-1.0000 0.0000 (  2100 PWs)   bands (ev):

    -1.6675  -1.6675   3.3119   3.3119   6.7887   6.7887  16.3027  16.3027

          k = 0.6667-0.3333 1.0000 (  2092 PWs)   bands (ev):

    -3.5424   0.5252   2.5576   3.8644   8.9947   9.8338  10.4121  13.2620

          k = 0.5000-0.1667 0.8333 (  2100 PWs)   bands (ev):

    -2.5374  -0.6947   2.1108   3.3849   9.4795   9.7164  12.2576  12.7021

          k =-0.3333-1.0000 0.0000 (  2090 PWs)   bands (ev):

    -1.5408  -1.5408   2.4800   2.4800   8.8734   8.8734  12.9449  12.9449

     the Fermi energy is     6.5405 ev

!    total energy              =     -17.04896868 Ry
     estimated scf accuracy    <       0.00000008 Ry

     The total energy is the sum of the following terms:
     one-electron contribution =       4.96491581 Ry
     hartree contribution      =       1.08659491 Ry
     xc contribution           =      -6.21727299 Ry
     ewald contribution        =     -16.88320641 Ry

     convergence has been achieved in   4 iterations

     Forces acting on atoms (cartesian axes, Ry/au):

     atom    1 type  1   force =     0.00000000    0.00000000    0.00000000
     atom    2 type  1   force =     0.00000000    0.00000000    0.00000000

     Total force =     0.000000     Total SCF correction =     0.000000


     Computing stress (Cartesian axis) and pressure

          total   stress  (Ry/bohr**3)                   (kbar)     P=       -4.05
  -0.00002751  -0.00000000  -0.00000000           -4.05       -0.00       -0.00
  -0.00000000  -0.00002751   0.00000000           -0.00       -4.05        0.00
  -0.00000000   0.00000000  -0.00002751           -0.00        0.00       -4.05


     BFGS Geometry Optimization
     Energy error            =      0.0E+00 Ry
     Gradient error          =      0.0E+00 Ry/Bohr
     Cell gradient error     =      1.0E+02 kbar

     number of scf cycles    =   1
     number of bfgs steps    =   0

     enthalpy           new  =     -16.8680890924 Ry

     new trust radius        =       0.0576875767 bohr
     new conv_thr            =       0.0000010000 Ry

     new unit-cell volume =    252.21614 a.u.^3 (    37.37458 Ang^3 )
     density =      2.55559 g/cm^3

CELL_PARAMETERS (alat= 10.21000000)
  -0.491158750   0.000000000   0.491158750
  -0.000000000   0.491158750   0.491158750
  -0.491158750   0.491158750   0.000000000

ATOMIC_POSITIONS (alat)
Si              -0.0000000000        0.0000000000        0.0000000000
Si               0.2455793748        0.2455793748        0.2455793748



     Writing config-only to output data dir ./tmp/vcrelax.save/ :
     XML data file
     NEW-OLD atomic charge density approx. for the potential

     total cpu time spent up to now is        4.3 secs

     Self-consistent Calculation

     iteration #  1     ecut=    60.00 Ry     beta= 0.70
     Davidson diagonalization with overlap
     ethr =  1.00E-06,  avg # of iterations =  7.1

     total cpu time spent up to now is        5.4 secs

     total energy              =     -17.04677139 Ry
     estimated scf accuracy    <       0.00011488 Ry

     iteration #  2     ecut=    60.00 Ry     beta= 0.70
     Davidson diagonalization with overlap
     ethr =  1.44E-06,  avg # of iterations =  1.3

     total cpu time spent up to now is        5.9 secs

     total energy              =     -17.04678483 Ry
     estimated scf accuracy    <       0.00000104 Ry

     iteration #  3     ecut=    60.00 Ry     beta= 0.70
     Davidson diagonalization with overlap
     ethr =  1.30E-08,  avg # of iterations =  2.6

     total cpu time spent up to now is        6.5 secs

     End of self-consistent calculation

          k = 0.0000 0.0000 0.0000 (  2085 PWs)   bands (ev):

    -5.6649   6.7809   6.7809   6.7809   9.3408   9.3408   9.3408  10.7486

          k =-0.1697 0.1697-0.1697 (  2088 PWs)   bands (ev):

    -5.2820   4.3214   6.3006   6.3006   9.2512  10.0255  10.0255  12.6947

          k =-0.3393 0.3393-0.3393 (  2090 PWs)   bands (ev):

    -4.1984   1.2135   5.7280   5.7280   8.6739  10.2659  10.2659  14.7002

          k = 0.5090-0.5090 0.5090 (  2060 PWs)   bands (ev):

    -3.1507  -0.5473   5.5245   5.5245   8.4492  10.0547  10.0547  14.4081

          k = 0.0000 0.3393 0.0000 (  2061 PWs)   bands (ev):

    -5.1521   4.7754   5.4967   5.4967   8.3959  11.2117  11.2364  11.2364

          k =-0.1697 0.5090-0.1697 (  2090 PWs)   bands (ev):

    -4.2855   2.2167   4.6769   4.9161   8.6626  10.8830  11.3945  11.9554

          k = 0.6787-0.3393 0.6787 (  2092 PWs)   bands (ev):

    -2.9951  -0.1150   3.8471   4.8940   8.7405  11.0027  11.4241  13.3216

          k = 0.5090-0.1697 0.5090 (  2082 PWs)   bands (ev):

    -3.4166   0.5347   3.5409   5.4109   9.2287  10.9664  11.0254  14.2839

          k = 0.3393 0.0000 0.3393 (  2083 PWs)   bands (ev):

    -4.6571   2.9814   4.1747   6.1948   9.9478  10.3811  10.6771  12.6131

          k = 0.0000 0.6787 0.0000 (  2080 PWs)   bands (ev):

    -3.6467   1.6947   4.2025   4.2025   7.3229   8.5783  14.2805  14.2805

          k = 0.8483-0.1697 0.8483 (  2092 PWs)   bands (ev):

    -2.4029   0.0546   2.8620   4.0615   7.6464   9.4034  14.4156  14.5493

          k = 0.6787 0.0000 0.6787 (  2091 PWs)   bands (ev):

    -2.1714  -0.1831   2.0079   4.5350   8.1923  12.5744  13.4392  14.1319

          k = 0.0000-1.0180 0.0000 (  2100 PWs)   bands (ev):

    -1.2705  -1.2705   3.7450   3.7450   7.2604   7.2604  17.3436  17.3436

          k = 0.6787-0.3393 1.0180 (  2092 PWs)   bands (ev):

    -3.2294   1.0120   2.9353   4.3115   9.5969  10.3830  11.1531  14.0515

          k = 0.5090-0.1697 0.8483 (  2100 PWs)   bands (ev):

    -2.1579  -0.2835   2.4772   3.7980  10.0330  10.3951  12.9423  13.4935

          k =-0.3393-1.0180-0.0000 (  2090 PWs)   bands (ev):

    -1.1249  -1.1249   2.8416   2.8416   9.4449   9.4449  13.7223  13.7223

     the Fermi energy is     7.0451 ev

!    total energy              =     -17.04678534 Ry
     estimated scf accuracy    <       0.00000010 Ry

     The total energy is the sum of the following terms:
     one-electron contribution =       5.37875837 Ry
     hartree contribution      =       1.04196257 Ry
     xc contribution           =      -6.28038865 Ry
     ewald contribution        =     -17.18711763 Ry

     convergence has been achieved in   3 iterations

     Forces acting on atoms (cartesian axes, Ry/au):

     atom    1 type  1   force =    -0.00000000   -0.00000000    0.00000000
     atom    2 type  1   force =     0.00000000    0.00000000   -0.00000000

     Total force =     0.000000     Total SCF correction =     0.000000


     Computing stress (Cartesian axis) and pressure

          total   stress  (Ry/bohr**3)                   (kbar)     P=       52.79
   0.00035884   0.00000000   0.00000000           52.79        0.00        0.00
   0.00000000   0.00035884  -0.00000000            0.00       52.79       -0.00
   0.00000000  -0.00000000   0.00035884            0.00       -0.00       52.79

     Energy error            =      7.2E-03 Ry
     Gradient error          =      3.1E-32 Ry/Bohr
     Cell gradient error     =      4.7E+01 kbar

     number of scf cycles    =   2
     number of bfgs steps    =   1

     enthalpy           old  =     -16.8680890924 Ry
     enthalpy           new  =     -16.8753322906 Ry

     CASE: enthalpy          _new < enthalpy          _old

     new trust radius        =       0.0445335270 bohr
     new conv_thr            =       0.0000000100 Ry

     new unit-cell volume =    241.75542 a.u.^3 (    35.82446 Ang^3 )
     density =      2.66617 g/cm^3

CELL_PARAMETERS (alat= 10.21000000)
  -0.484272345  -0.000000000   0.484272345
   0.000000000   0.484272345   0.484272345
  -0.484272345   0.484272345  -0.000000000

ATOMIC_POSITIONS (alat)
Si              -0.0000000000       -0.0000000000        0.0000000000
Si               0.2421361725        0.2421361725        0.2421361725



     Writing config-only to output data dir ./tmp/vcrelax.save/ :
     XML data file
     NEW-OLD atomic charge density approx. for the potential

     total cpu time spent up to now is        7.2 secs

     Self-consistent Calculation

     iteration #  1     ecut=    60.00 Ry     beta= 0.70
     Davidson diagonalization with overlap
     ethr =  1.00E-06,  avg # of iterations =  6.6

     total cpu time spent up to now is        8.1 secs

     total energy              =     -17.04116037 Ry
     estimated scf accuracy    <       0.00006982 Ry

     iteration #  2     ecut=    60.00 Ry     beta= 0.70
     Davidson diagonalization with overlap
     ethr =  8.73E-07,  avg # of iterations =  1.3

     total cpu time spent up to now is        8.6 secs

     total energy              =     -17.04116856 Ry
     estimated scf accuracy    <       0.00000073 Ry

     iteration #  3     ecut=    60.00 Ry     beta= 0.70
     Davidson diagonalization with overlap
     ethr =  9.13E-09,  avg # of iterations =  2.4

     total cpu time spent up to now is        9.2 secs

     total energy              =     -17.04116886 Ry
     estimated scf accuracy    <       0.00000007 Ry

     iteration #  4     ecut=    60.00 Ry     beta= 0.70
     Davidson diagonalization with overlap
     ethr =  8.60E-10,  avg # of iterations =  1.9

     total cpu time spent up to now is        9.7 secs

     End of self-consistent calculation

          k = 0.0000 0.0000 0.0000 (  2085 PWs)   bands (ev):

    -5.4999   7.2571   7.2571   7.2571   9.8321   9.8321   9.8321  11.7345

          k =-0.1721 0.1721-0.1721 (  2088 PWs)   bands (ev):

    -5.1031   4.7521   6.7579   6.7579   9.8472  10.5415  10.5415  13.5830

          k =-0.3442 0.3442-0.3442 (  2090 PWs)   bands (ev):

    -3.9764   1.5480   6.1705   6.1705   9.3003  10.7434  10.7434  15.2948

          k = 0.5162-0.5162 0.5162 (  2060 PWs)   bands (ev):

    -2.8700  -0.2919   5.9635   5.9635   9.0807  10.5039  10.5039  14.9427

          k = 0.0000 0.3442 0.0000 (  2061 PWs)   bands (ev):

    -4.9687   5.2805   5.9155   5.9155   8.8548  11.7768  11.8050  11.8050

          k =-0.1721 0.5162-0.1721 (  2090 PWs)   bands (ev):

    -4.0694   2.6145   5.0949   5.3169   9.1261  11.3740  12.0185  12.5149

          k = 0.6883-0.3442 0.6883 (  2092 PWs)   bands (ev):

    -2.7164   0.1804   4.2372   5.2994   9.2027  11.5976  11.9307  13.9295

          k = 0.5162-0.1721 0.5162 (  2082 PWs)   bands (ev):

    -3.1612   0.8618   3.9085   5.8403   9.7364  11.5269  11.5413  14.9680

          k = 0.3442 0.0000 0.3442 (  2083 PWs)   bands (ev):

    -4.4549   3.4096   4.5379   6.6573  10.5335  10.9032  11.2307  13.2604

          k = 0.0000 0.6883 0.0000 (  2080 PWs)   bands (ev):

    -3.4085   2.1277   4.5767   4.5767   7.7354   8.9783  14.9440  14.9440

          k = 0.8604-0.1721 0.8604 (  2092 PWs)   bands (ev):

    -2.1135   0.4302   3.1665   4.4325   8.0495   9.8648  15.0330  15.2673

          k = 0.6883 0.0000 0.6883 (  2091 PWs)   bands (ev):

    -1.8597   0.1713   2.2707   4.9255   8.6189  13.0901  14.0598  14.8459

          k = 0.0000-1.0325 0.0000 (  2100 PWs)   bands (ev):

    -0.9438  -0.9438   4.1044   4.1044   7.6465   7.6465  18.1960  18.1960

          k = 0.6883-0.3442 1.0325 (  2092 PWs)   bands (ev):

    -2.9711   1.4116   3.2488   4.6813  10.0907  10.8266  11.7575  14.6936

          k = 0.5162-0.1721 0.8604 (  2100 PWs)   bands (ev):

    -1.8439   0.0514   2.7837   4.1391  10.4869  10.9449  13.4956  14.1371

          k =-0.3442-1.0325-0.0000 (  2090 PWs)   bands (ev):

    -0.7819  -0.7819   3.1406   3.1406   9.9119   9.9119  14.3545  14.3545

     the Fermi energy is     7.4612 ev

!    total energy              =     -17.04116887 Ry
     estimated scf accuracy    <          5.4E-10 Ry

     The total energy is the sum of the following terms:
     one-electron contribution =       5.71488229 Ry
     hartree contribution      =       1.00725403 Ry
     xc contribution           =      -6.33178491 Ry
     ewald contribution        =     -17.43152028 Ry

     convergence has been achieved in   4 iterations

     Forces acting on atoms (cartesian axes, Ry/au):

     atom    1 type  1   force =     0.00000000    0.00000000    0.00000000
     atom    2 type  1   force =     0.00000000    0.00000000   -0.00000000

     Total force =     0.000000     Total SCF correction =     0.000000


     Computing stress (Cartesian axis) and pressure

          total   stress  (Ry/bohr**3)                   (kbar)     P=      107.00
   0.00072740   0.00000000   0.00000000          107.00        0.00        0.00
   0.00000000   0.00072740   0.00000000            0.00      107.00        0.00
   0.00000000   0.00000000   0.00072740            0.00        0.00      107.00

     Energy error            =      1.5E-03 Ry
     Gradient error          =      9.3E-33 Ry/Bohr
     Cell gradient error     =      7.0E+00 kbar

     number of scf cycles    =   3
     number of bfgs steps    =   2

     enthalpy           old  =     -16.8753322906 Ry
     enthalpy           new  =     -16.8768268711 Ry

     CASE: enthalpy          _new < enthalpy          _old

     new trust radius        =       0.0055734802 bohr
     new conv_thr            =       0.0000000100 Ry

     new unit-cell volume =    243.05764 a.u.^3 (    36.01743 Ang^3 )
     density =      2.65189 g/cm^3

CELL_PARAMETERS (alat= 10.21000000)
  -0.485140302  -0.000000000   0.485140302
   0.000000000   0.485140302   0.485140302
  -0.485140302   0.485140302  -0.000000000

ATOMIC_POSITIONS (alat)
Si               0.0000000000        0.0000000000        0.0000000000
Si               0.2425701508        0.2425701508        0.2425701508



     Writing config-only to output data dir ./tmp/vcrelax.save/ :
     XML data file
     NEW-OLD atomic charge density approx. for the potential

     total cpu time spent up to now is       10.3 secs

     Self-consistent Calculation

     iteration #  1     ecut=    60.00 Ry     beta= 0.70
     Davidson diagonalization with overlap
     ethr =  1.00E-06,  avg # of iterations =  2.1

     Threshold (ethr) on eigenvalues was too large:
     Diagonalizing with lowered threshold

     Davidson diagonalization with overlap
     ethr =  1.87E-08,  avg # of iterations =  3.4

     total cpu time spent up to now is       11.3 secs

     total energy              =     -17.04208315 Ry
     estimated scf accuracy    <       0.00000110 Ry

     iteration #  2     ecut=    60.00 Ry     beta= 0.70
     Davidson diagonalization with overlap
     ethr =  1.37E-08,  avg # of iterations =  1.2

     total cpu time spent up to now is       11.8 secs

     total energy              =     -17.04208327 Ry
     estimated scf accuracy    <       0.00000001 Ry

     iteration #  3     ecut=    60.00 Ry     beta= 0.70
     Davidson diagonalization with overlap
     ethr =  1.63E-10,  avg # of iterations =  2.4

     total cpu time spent up to now is       12.4 secs

     End of self-consistent calculation

          k = 0.0000 0.0000 0.0000 (  2085 PWs)   bands (ev):

    -5.5212   7.1958   7.1958   7.1958   9.7689   9.7689   9.7689  11.6078

          k =-0.1718 0.1718-0.1718 (  2088 PWs)   bands (ev):

    -5.1261   4.6969   6.6990   6.6990   9.7712  10.4751  10.4751  13.4683

          k =-0.3435 0.3435-0.3435 (  2090 PWs)   bands (ev):

    -4.0050   1.5051   6.1134   6.1134   9.2200  10.6822  10.6822  15.2194

          k = 0.5153-0.5153 0.5153 (  2060 PWs)   bands (ev):

    -2.9062  -0.3246   5.9069   5.9069   8.9996  10.4463  10.4463  14.8742

          k = 0.0000 0.3435 0.0000 (  2061 PWs)   bands (ev):

    -4.9923   5.2157   5.8615   5.8615   8.7958  11.7066  11.7319  11.7319

          k =-0.1718 0.5153-0.1718 (  2090 PWs)   bands (ev):

    -4.0972   2.5635   5.0409   5.2652   9.0667  11.3126  11.9371  12.4431

          k = 0.6871-0.3435 0.6871 (  2092 PWs)   bands (ev):

    -2.7523   0.1426   4.1868   5.2471   9.1438  11.5212  11.8657  13.8512

          k = 0.5153-0.1718 0.5153 (  2082 PWs)   bands (ev):

    -3.1941   0.8198   3.8610   5.7849   9.6718  11.4627  11.4672  14.8803

          k = 0.3435 0.0000 0.3435 (  2083 PWs)   bands (ev):

    -4.4810   3.3547   4.4910   6.5977  10.4589  10.8361  11.1595  13.1776

          k = 0.0000 0.6871 0.0000 (  2080 PWs)   bands (ev):

    -3.4391   2.0720   4.5284   4.5284   7.6824   8.9273  14.8588  14.8588

          k = 0.8589-0.1718 0.8589 (  2092 PWs)   bands (ev):

    -2.1507   0.3819   3.1273   4.3846   7.9978   9.8057  14.9540  15.1752

          k = 0.6871 0.0000 0.6871 (  2091 PWs)   bands (ev):

    -1.8999   0.1258   2.2368   4.8751   8.5643  13.0240  13.9802  14.7541

          k = 0.0000-1.0306 0.0000 (  2100 PWs)   bands (ev):

    -0.9859  -0.9859   4.0580   4.0580   7.5969   7.5969  18.0865  18.0865

          k = 0.6871-0.3435 1.0306 (  2092 PWs)   bands (ev):

    -3.0043   1.3602   3.2083   4.6336  10.0273  10.7698  11.6802  14.6114

          k = 0.5153-0.1718 0.8589 (  2100 PWs)   bands (ev):

    -1.8844   0.0085   2.7441   4.0952  10.4286  10.8746  13.4249  14.0547

          k =-0.3435-1.0306 0.0000 (  2090 PWs)   bands (ev):

    -0.8261  -0.8261   3.1021   3.1021   9.8520   9.8520  14.2736  14.2736

     the Fermi energy is     7.4076 ev

!    total energy              =     -17.04208328 Ry
     estimated scf accuracy    <          1.1E-09 Ry

     The total energy is the sum of the following terms:
     one-electron contribution =       5.67182224 Ry
     hartree contribution      =       1.01162345 Ry
     xc contribution           =      -6.32519513 Ry
     ewald contribution        =     -17.40033383 Ry

     convergence has been achieved in   3 iterations

     Forces acting on atoms (cartesian axes, Ry/au):

     atom    1 type  1   force =    -0.00000000   -0.00000000   -0.00000000
     atom    2 type  1   force =    -0.00000000   -0.00000000   -0.00000000

     Total force =     0.000000     Total SCF correction =     0.000000


     Computing stress (Cartesian axis) and pressure

          total   stress  (Ry/bohr**3)                   (kbar)     P=       99.63
   0.00067730  -0.00000000  -0.00000000           99.63       -0.00       -0.00
  -0.00000000   0.00067730   0.00000000           -0.00       99.63        0.00
  -0.00000000   0.00000000   0.00067730           -0.00        0.00       99.63

     Energy error            =      2.9E-05 Ry
     Gradient error          =      4.2E-33 Ry/Bohr
     Cell gradient error     =      3.7E-01 kbar

     bfgs converged in   4 scf cycles and   3 bfgs steps
     (criteria: energy <  1.0E-04 Ry, force <  1.0E-03 Ry/Bohr, cell <  5.0E-01 kbar)

     End of BFGS Geometry Optimization

     Final enthalpy           =     -16.8768560490 Ry

     File ./tmp/vcrelax.bfgs deleted, as requested
Begin final coordinates
     new unit-cell volume =    243.05764 a.u.^3 (    36.01743 Ang^3 )
     density =      2.65189 g/cm^3

CELL_PARAMETERS (alat= 10.21000000)
  -0.485140302  -0.000000000   0.485140302
   0.000000000   0.485140302   0.485140302
  -0.485140302   0.485140302  -0.000000000

ATOMIC_POSITIONS (alat)
Si               0.0000000000        0.0000000000        0.0000000000
Si               0.2425701508        0.2425701508        0.2425701508
End final coordinates



     Writing config-only to output data dir ./tmp/vcrelax.save/ :
     XML data file

     Final scf calculation at the relaxed structure.
     The G-vectors are recalculated for the final unit cell
     Results may differ from those at the preceding step.

     G-vector sticks info
     --------------------
     sticks:   dense  smooth     PW     G-vecs:    dense   smooth      PW
     Sum         817     817    253                15353    15353    2637

     Using Slab Decomposition



     bravais-lattice index     =            2
     lattice parameter (alat)  =      10.2100  a.u.
     unit-cell volume          =     243.0576 (a.u.)^3
     number of atoms/cell      =            2
     number of atomic types    =            1
     number of electrons       =         8.00
     number of Kohn-Sham states=            8
     kinetic-energy cutoff     =      60.0000  Ry
     charge density cutoff     =     240.0000  Ry
     scf convergence threshold =      1.0E-08
     mixing beta               =       0.7000
     number of iterations used =            8  plain     mixing
     press convergence thresh. =      5.0E-01
     Exchange-correlation= SLA  PW   NOGX NOGC
                           (   1   4   0   0   0   0   0)

     celldm(1)=  10.210000  celldm(2)=   0.000000  celldm(3)=   0.000000
     celldm(4)=   0.000000  celldm(5)=   0.000000  celldm(6)=   0.000000

     crystal axes: (cart. coord. in units of alat)
               a(1) = (  -0.485140  -0.000000   0.485140 )  
               a(2) = (   0.000000   0.485140   0.485140 )  
               a(3) = (  -0.485140   0.485140  -0.000000 )  

     reciprocal axes: (cart. coord. in units 2 pi/alat)
               b(1) = ( -1.030630 -1.030630  1.030630 )  
               b(2) = (  1.030630  1.030630  1.030630 )  
               b(3) = ( -1.030630  1.030630 -1.030630 )  


     PseudoPot. # 1 for Si read from file:
     ./PSEUDO/Si.LDA.upf
     MD5 check sum: 9e2d726316af3d4752eea8ab0afbb951
     Pseudo is Norm-conserving + core correction, Zval =  4.0
     Generated using ONCVPSP code by D. R. Hamann
     Using radial grid of 1510 points,  6 beta functions with: 
                l(1) =   0
                l(2) =   0
                l(3) =   1
                l(4) =   1
                l(5) =   2
                l(6) =   2

     atomic species   valence    mass     pseudopotential
     Si                4.00    28.76000     Si( 1.00)

     48 Sym. Ops., with inversion, found (24 have fractional translation)



   Cartesian axes

     site n.     atom                  positions (alat units)
         1        Si     tau(   1) = (   0.0000000   0.0000000   0.0000000  )
         2        Si     tau(   2) = (   0.2425702   0.2425702   0.2425702  )

     number of k points=    16 (tetrahedron method)
                       cart. coord. in units 2pi/alat
        k(    1) = (   0.0000000   0.0000000   0.0000000), wk =   0.0092593
        k(    2) = (  -0.1717716   0.1717716  -0.1717716), wk =   0.0740741
        k(    3) = (  -0.3435432   0.3435432  -0.3435432), wk =   0.0740741
        k(    4) = (   0.5153148  -0.5153148   0.5153148), wk =   0.0370370
        k(    5) = (   0.0000000   0.3435432   0.0000000), wk =   0.0555556
        k(    6) = (  -0.1717716   0.5153148  -0.1717716), wk =   0.2222222
        k(    7) = (   0.6870865  -0.3435432   0.6870865), wk =   0.2222222
        k(    8) = (   0.5153148  -0.1717716   0.5153148), wk =   0.2222222
        k(    9) = (   0.3435432   0.0000000   0.3435432), wk =   0.1111111
        k(   10) = (   0.0000000   0.6870865   0.0000000), wk =   0.0555556
        k(   11) = (   0.8588581  -0.1717716   0.8588581), wk =   0.2222222
        k(   12) = (   0.6870865   0.0000000   0.6870865), wk =   0.1111111
        k(   13) = (   0.0000000  -1.0306297   0.0000000), wk =   0.0277778
        k(   14) = (   0.6870865  -0.3435432   1.0306297), wk =   0.2222222
        k(   15) = (   0.5153148  -0.1717716   0.8588581), wk =   0.2222222
        k(   16) = (  -0.3435432  -1.0306297   0.0000000), wk =   0.1111111

     Dense  grid:    15353 G-vectors     FFT dimensions: (  36,  36,  36)

     Estimated max dynamical RAM per process >      18.16 MB

     Initial potential from superposition of free atoms

     starting charge       7.9989, renormalised to       8.0000
     Starting wfcs are    8 randomized atomic wfcs

     total cpu time spent up to now is       13.3 secs

     Self-consistent Calculation

     iteration #  1     ecut=    60.00 Ry     beta= 0.70
     Davidson diagonalization with overlap
     c_bands:  1 eigenvalues not converged
     c_bands:  1 eigenvalues not converged
     ethr =  1.00E-06,  avg # of iterations = 14.7

     total cpu time spent up to now is       14.9 secs

     total energy              =     -17.03720125 Ry
     estimated scf accuracy    <       0.07216375 Ry

     iteration #  2     ecut=    60.00 Ry     beta= 0.70
     Davidson diagonalization with overlap
     ethr =  9.02E-04,  avg # of iterations =  1.0

     total cpu time spent up to now is       15.4 secs

     total energy              =     -17.04190616 Ry
     estimated scf accuracy    <       0.00171742 Ry

     iteration #  3     ecut=    60.00 Ry     beta= 0.70
     Davidson diagonalization with overlap
     ethr =  2.15E-05,  avg # of iterations =  2.1

     total cpu time spent up to now is       15.9 secs

     total energy              =     -17.04206947 Ry
     estimated scf accuracy    <       0.00004459 Ry

     iteration #  4     ecut=    60.00 Ry     beta= 0.70
     Davidson diagonalization with overlap
     ethr =  5.57E-07,  avg # of iterations =  2.6

     total cpu time spent up to now is       16.5 secs

     total energy              =     -17.04208222 Ry
     estimated scf accuracy    <       0.00000102 Ry

     iteration #  5     ecut=    60.00 Ry     beta= 0.70
     Davidson diagonalization with overlap
     ethr =  1.28E-08,  avg # of iterations =  2.7

     total cpu time spent up to now is       17.1 secs

     total energy              =     -17.04208275 Ry
     estimated scf accuracy    <       0.00000007 Ry

     iteration #  6     ecut=    60.00 Ry     beta= 0.70
     Davidson diagonalization with overlap
     ethr =  9.20E-10,  avg # of iterations =  2.6

     total cpu time spent up to now is       17.8 secs

     End of self-consistent calculation

          k = 0.0000 0.0000 0.0000 (  1917 PWs)   bands (ev):

    -5.5211   7.1959   7.1959   7.1959   9.7690   9.7690   9.7690  11.6080

          k =-0.1718 0.1718-0.1718 (  1913 PWs)   bands (ev):

    -5.1260   4.6970   6.6992   6.6992   9.7713  10.4752  10.4752  13.4684

          k =-0.3435 0.3435-0.3435 (  1898 PWs)   bands (ev):

    -4.0049   1.5052   6.1136   6.1136   9.2201  10.6822  10.6822  15.2201

          k = 0.5153-0.5153 0.5153 (  1916 PWs)   bands (ev):

    -2.9061  -0.3245   5.9070   5.9070   8.9997  10.4464  10.4464  14.8741

          k = 0.0000 0.3435 0.0000 (  1916 PWs)   bands (ev):

    -4.9922   5.2159   5.8617   5.8617   8.7959  11.7066  11.7320  11.7320

          k =-0.1718 0.5153-0.1718 (  1914 PWs)   bands (ev):

    -4.0971   2.5636   5.0410   5.2653   9.0667  11.3126  11.9373  12.4432

          k = 0.6871-0.3435 0.6871 (  1919 PWs)   bands (ev):

    -2.7522   0.1427   4.1869   5.2472   9.1438  11.5213  11.8658  13.8513

          k = 0.5153-0.1718 0.5153 (  1906 PWs)   bands (ev):

    -3.1940   0.8199   3.8611   5.7850   9.6719  11.4627  11.4673  14.6235

          k = 0.3435 0.0000 0.3435 (  1907 PWs)   bands (ev):

    -4.4808   3.3548   4.4911   6.5978  10.4590  10.8362  11.1596  13.1777

          k = 0.0000 0.6871 0.0000 (  1932 PWs)   bands (ev):

    -3.4390   2.0722   4.5285   4.5285   7.6824   8.9273  14.8590  14.8590

          k = 0.8589-0.1718 0.8589 (  1898 PWs)   bands (ev):

    -2.1506   0.3820   3.1274   4.3847   7.9978   9.8057  14.9541  15.1754

          k = 0.6871 0.0000 0.6871 (  1896 PWs)   bands (ev):

    -1.8997   0.1259   2.2369   4.8753   8.5643  13.0240  13.9803  14.7543

          k = 0.0000-1.0306 0.0000 (  1924 PWs)   bands (ev):

    -0.9857  -0.9857   4.0582   4.0582   7.5970   7.5970  18.0867  18.0867

          k = 0.6871-0.3435 1.0306 (  1902 PWs)   bands (ev):

    -3.0042   1.3604   3.2084   4.6337  10.0273  10.7698  11.6803  14.6115

          k = 0.5153-0.1718 0.8589 (  1902 PWs)   bands (ev):

    -1.8842   0.0086   2.7441   4.0952  10.4287  10.8747  13.4250  14.0548

          k =-0.3435-1.0306 0.0000 (  1908 PWs)   bands (ev):

    -0.8259  -0.8259   3.1021   3.1021   9.8520   9.8520  14.2737  14.2737

     the Fermi energy is     7.4077 ev

!    total energy              =     -17.04208278 Ry
     estimated scf accuracy    <          3.1E-09 Ry

     The total energy is the sum of the following terms:
     one-electron contribution =       5.67183733 Ry
     hartree contribution      =       1.01159627 Ry
     xc contribution           =      -6.32518253 Ry
     ewald contribution        =     -17.40033384 Ry

     convergence has been achieved in   6 iterations

     Forces acting on atoms (cartesian axes, Ry/au):

     atom    1 type  1   force =     0.00000000    0.00000000    0.00000000
     atom    2 type  1   force =     0.00000000   -0.00000000   -0.00000000

     Total force =     0.000000     Total SCF correction =     0.000000


     Computing stress (Cartesian axis) and pressure

          total   stress  (Ry/bohr**3)                   (kbar)     P=       99.60
   0.00067710   0.00000000   0.00000000           99.60        0.00        0.00
  -0.00000000   0.00067710   0.00000000           -0.00       99.60        0.00
   0.00000000  -0.00000000   0.00067710            0.00       -0.00       99.60


     Writing all to output data dir ./tmp/vcrelax.save/ :
     XML data file, charge density, pseudopotentials, collected wavefunctions

     init_run     :      1.01s CPU      1.02s WALL (       2 calls)
     electrons    :     14.11s CPU     14.25s WALL (       5 calls)
     update_pot   :      0.02s CPU      0.02s WALL (       3 calls)
     forces       :      0.42s CPU      0.42s WALL (       5 calls)
     stress       :      2.80s CPU      2.83s WALL (       5 calls)

     Called by init_run:
     wfcinit      :      0.47s CPU      0.47s WALL (       2 calls)
     potinit      :      0.06s CPU      0.06s WALL (       2 calls)
     hinit0       :      0.45s CPU      0.46s WALL (       2 calls)

     Called by electrons:
     c_bands      :     12.19s CPU     12.29s WALL (      22 calls)
     sum_band     :      1.79s CPU      1.81s WALL (      22 calls)
     v_of_rho     :      0.09s CPU      0.10s WALL (      25 calls)
     mix_rho      :      0.03s CPU      0.04s WALL (      22 calls)

     Called by c_bands:
     init_us_2    :      0.48s CPU      0.49s WALL (     896 calls)
     init_us_2:cp :      0.48s CPU      0.49s WALL (     896 calls)
     cegterg      :     10.88s CPU     10.95s WALL (     352 calls)

     Called by *egterg:
     cdiaghg      :      0.12s CPU      0.13s WALL (    1431 calls)
     h_psi        :      9.36s CPU      9.43s WALL (    1543 calls)
     g_psi        :      0.06s CPU      0.06s WALL (    1159 calls)

     Called by h_psi:
     h_psi:calbec :      1.22s CPU      1.23s WALL (    1543 calls)
     vloc_psi     :      7.09s CPU      7.14s WALL (    1543 calls)
     add_vuspsi   :      0.99s CPU      1.00s WALL (    1543 calls)

     General routines
     calbec       :      1.56s CPU      1.58s WALL (    1943 calls)
     fft          :      0.29s CPU      0.29s WALL (     115 calls)
     ffts         :      0.01s CPU      0.01s WALL (      22 calls)
     fftw         :      6.62s CPU      6.68s WALL (   20870 calls)


     PWSCF        :     18.48s CPU     18.69s WALL


   This run was terminated on:  22: 2:35  15Dec2024            

=------------------------------------------------------------------------------=
   JOB DONE.
=------------------------------------------------------------------------------=
