
     Program PWSCF v.7.3 starts on 15Dec2024 at 22:10:41 

     This program is part of the open-source Quantum ESPRESSO suite
     for quantum simulation of materials; please cite
         "P. Giannozzi et al., J. Phys.:Condens. Matter 21 395502 (2009);
         "P. Giannozzi et al., J. Phys.:Condens. Matter 29 465901 (2017);
         "P. Giannozzi et al., J. Chem. Phys. 152 154105 (2020);
          URL http://www.quantum-espresso.org", 
     in publications or presentations arising from this work. More details at
     http://www.quantum-espresso.org/quote

     Serial version
     5234 MiB available memory on the printing compute node when the environment starts

     Waiting for input...
     Reading input from standard input
     Message from routine read_cards :
     DEPRECATED: no units specified in ATOMIC_POSITIONS card
     Message from routine read_cards :
     ATOMIC_POSITIONS: units set to alat

     Current dimensions of program PWSCF are:
     Max number of different atomic species (ntypx) = 10
     Max number of k-points (npk) =  40000
     Max angular momentum in pseudopotentials (lmaxx) =  4
     Message from routine iosys:
     BEWARE:  force calculation with tetrahedra (not recommanded)
     Message from routine iosys:
     BEWARE: stress calculation with tetrahedra (not recommanded)
     [opt_tetra]  Optimized tetrahedron method is used.


     G-vector sticks info
     --------------------
     sticks:   dense  smooth     PW     G-vecs:    dense   smooth      PW
     Sum         673     673    211                11575    11575    1989

     Using Slab Decomposition



     bravais-lattice index     =            2
     lattice parameter (alat)  =       9.0487  a.u.
     unit-cell volume          =     185.2246 (a.u.)^3
     number of atoms/cell      =            2
     number of atomic types    =            1
     number of electrons       =         8.00
     number of Kohn-Sham states=            8
     kinetic-energy cutoff     =      60.0000  Ry
     charge density cutoff     =     240.0000  Ry
     scf convergence threshold =      1.0E-06
     mixing beta               =       0.7000
     number of iterations used =            8  plain     mixing
     energy convergence thresh.=      1.0E-04
     force convergence thresh. =      1.0E-03
     press convergence thresh. =      5.0E-01
     Exchange-correlation= SLA  PW   NOGX NOGC
                           (   1   4   0   0   0   0   0)
     nstep                     =           50


     celldm(1)=   9.048700  celldm(2)=   0.000000  celldm(3)=   0.000000
     celldm(4)=   0.000000  celldm(5)=   0.000000  celldm(6)=   0.000000

     crystal axes: (cart. coord. in units of alat)
               a(1) = (  -0.500000   0.000000   0.500000 )  
               a(2) = (   0.000000   0.500000   0.500000 )  
               a(3) = (  -0.500000   0.500000   0.000000 )  

     reciprocal axes: (cart. coord. in units 2 pi/alat)
               b(1) = ( -1.000000 -1.000000  1.000000 )  
               b(2) = (  1.000000  1.000000  1.000000 )  
               b(3) = ( -1.000000  1.000000 -1.000000 )  


     PseudoPot. # 1 for Si read from file:
     ./PSEUDO/Si.LDA.upf
     MD5 check sum: 9e2d726316af3d4752eea8ab0afbb951
     Pseudo is Norm-conserving + core correction, Zval =  4.0
     Generated using ONCVPSP code by D. R. Hamann
     Using radial grid of 1510 points,  6 beta functions with: 
                l(1) =   0
                l(2) =   0
                l(3) =   1
                l(4) =   1
                l(5) =   2
                l(6) =   2

     atomic species   valence    mass     pseudopotential
     Si                4.00    28.76000     Si( 1.00)

     48 Sym. Ops., with inversion, found (24 have fractional translation)



   Cartesian axes

     site n.     atom                  positions (alat units)
         1        Si     tau(   1) = (   0.0000000   0.0000000   0.0000000  )
         2        Si     tau(   2) = (   0.2500000   0.2500000   0.2500000  )

     number of k points=    16 (tetrahedron method)
                       cart. coord. in units 2pi/alat
        k(    1) = (   0.0000000   0.0000000   0.0000000), wk =   0.0092593
        k(    2) = (  -0.1666667   0.1666667  -0.1666667), wk =   0.0740741
        k(    3) = (  -0.3333333   0.3333333  -0.3333333), wk =   0.0740741
        k(    4) = (   0.5000000  -0.5000000   0.5000000), wk =   0.0370370
        k(    5) = (   0.0000000   0.3333333   0.0000000), wk =   0.0555556
        k(    6) = (  -0.1666667   0.5000000  -0.1666667), wk =   0.2222222
        k(    7) = (   0.6666667  -0.3333333   0.6666667), wk =   0.2222222
        k(    8) = (   0.5000000  -0.1666667   0.5000000), wk =   0.2222222
        k(    9) = (   0.3333333   0.0000000   0.3333333), wk =   0.1111111
        k(   10) = (   0.0000000   0.6666667   0.0000000), wk =   0.0555556
        k(   11) = (   0.8333333  -0.1666667   0.8333333), wk =   0.2222222
        k(   12) = (   0.6666667   0.0000000   0.6666667), wk =   0.1111111
        k(   13) = (   0.0000000  -1.0000000   0.0000000), wk =   0.0277778
        k(   14) = (   0.6666667  -0.3333333   1.0000000), wk =   0.2222222
        k(   15) = (   0.5000000  -0.1666667   0.8333333), wk =   0.2222222
        k(   16) = (  -0.3333333  -1.0000000   0.0000000), wk =   0.1111111

     Dense  grid:    11575 G-vectors     FFT dimensions: (  32,  32,  32)

     Estimated max dynamical RAM per process >      14.09 MB

     Initial potential from superposition of free atoms

     starting charge       7.9989, renormalised to       8.0000
     Starting wfcs are    8 randomized atomic wfcs

     total cpu time spent up to now is        0.7 secs

     Self-consistent Calculation

     iteration #  1     ecut=    60.00 Ry     beta= 0.70
     Davidson diagonalization with overlap
     ethr =  1.00E-02,  avg # of iterations =  5.2

     total cpu time spent up to now is        1.4 secs

     total energy              =     -16.89809307 Ry
     estimated scf accuracy    <       0.09793360 Ry

     iteration #  2     ecut=    60.00 Ry     beta= 0.70
     Davidson diagonalization with overlap
     ethr =  1.22E-03,  avg # of iterations =  1.1

     total cpu time spent up to now is        1.9 secs

     total energy              =     -16.90626661 Ry
     estimated scf accuracy    <       0.00178922 Ry

     iteration #  3     ecut=    60.00 Ry     beta= 0.70
     Davidson diagonalization with overlap
     ethr =  2.24E-05,  avg # of iterations =  4.5

     total cpu time spent up to now is        2.5 secs

     total energy              =     -16.90662600 Ry
     estimated scf accuracy    <       0.00005482 Ry

     iteration #  4     ecut=    60.00 Ry     beta= 0.70
     Davidson diagonalization with overlap
     ethr =  6.85E-07,  avg # of iterations =  4.9

     total cpu time spent up to now is        3.1 secs

     End of self-consistent calculation

          k = 0.0000 0.0000 0.0000 (  1459 PWs)   bands (ev):

    -4.2883  10.6865  10.6865  10.6865  13.3025  13.3025  13.3025  18.5657

          k =-0.1667 0.1667-0.1667 (  1432 PWs)   bands (ev):

    -3.7962   7.7651  10.0577  10.0577  13.8725  14.1822  14.1822  17.7019

          k =-0.3333 0.3333-0.3333 (  1441 PWs)   bands (ev):

    -2.3730   3.9056   9.3873   9.3873  13.6291  14.0473  14.0474  19.2584

          k = 0.5000-0.5000 0.5000 (  1458 PWs)   bands (ev):

    -0.8178   1.4835   9.1670   9.1670  13.4826  13.6117  13.6117  18.6750

          k = 0.0000 0.3333 0.0000 (  1447 PWs)   bands (ev):

    -3.6309   8.8275   8.9375   8.9375  12.1111  15.0994  15.8136  15.8136

          k =-0.1667 0.5000-0.1667 (  1448 PWs)   bands (ev):

    -2.5070   5.3717   8.1732   8.2223  12.3282  14.5747  16.3982  16.5228

          k = 0.6667-0.3333 0.6667 (  1451 PWs)   bands (ev):

    -0.7019   2.2311   7.0998   8.2450  12.3082  15.4455  15.7385  18.2795

          k = 0.5000-0.1667 0.5000 (  1453 PWs)   bands (ev):

    -1.3226   3.1399   6.6079   8.9606  13.0991  14.9789  15.6635  18.4475

          k = 0.3333 0.0000 0.3333 (  1444 PWs)   bands (ev):

    -2.9880   6.4039   7.1736  10.0176  14.4024  14.5745  15.1473  16.3433

          k = 0.0000 0.6667 0.0000 (  1439 PWs)   bands (ev):

    -1.6948   5.2014   7.3001   7.3001  10.6633  11.6922  19.5443  19.5443

          k = 0.8333-0.1667 0.8333 (  1459 PWs)   bands (ev):

    -0.0419   3.1117   5.3712   7.1369  10.8627  13.1006  19.2416  20.1918

          k = 0.6667 0.0000 0.6667 (  1464 PWs)   bands (ev):

     0.3949   2.6808   4.1807   7.7662  11.5799  16.7210  18.3635  18.5602

          k = 0.0000-1.0000 0.0000 (  1428 PWs)   bands (ev):

     1.3811   1.3811   6.7302   6.7302  10.3585  10.3585  22.9083  24.1591

          k = 0.6667-0.3333 1.0000 (  1458 PWs)   bands (ev):

    -1.1160   4.2434   5.5411   7.3467  13.5729  13.9259  15.8327  19.1108

          k = 0.5000-0.1667 0.8333 (  1462 PWs)   bands (ev):

     0.4375   2.3481   5.0939   6.5860  13.7049  14.6970  17.2696  18.5455

          k =-0.3333-1.0000 0.0000 (  1458 PWs)   bands (ev):

     1.6832   1.6832   5.2993   5.2993  13.1859  13.1859  18.6790  18.6791

     the Fermi energy is    10.4142 ev

!    total energy              =     -16.90663943 Ry
     estimated scf accuracy    <       0.00000014 Ry

     The total energy is the sum of the following terms:
     one-electron contribution =       8.03003628 Ry
     hartree contribution      =       0.79537841 Ry
     xc contribution           =      -6.68207596 Ry
     ewald contribution        =     -19.04997817 Ry

     convergence has been achieved in   4 iterations

     Forces acting on atoms (cartesian axes, Ry/au):

     atom    1 type  1   force =     0.00000000    0.00000000    0.00000000
     atom    2 type  1   force =     0.00000000    0.00000000    0.00000000

     Total force =     0.000000     Total SCF correction =     0.000000


     Computing stress (Cartesian axis) and pressure

          total   stress  (Ry/bohr**3)                   (kbar)     P=      703.01
   0.00477899   0.00000000   0.00000000          703.01        0.00        0.00
   0.00000000   0.00477899  -0.00000000            0.00      703.01       -0.00
   0.00000000  -0.00000000   0.00477899            0.00       -0.00      703.01


     BFGS Geometry Optimization
     Energy error            =      0.0E+00 Ry
     Gradient error          =      0.0E+00 Ry/Bohr
     Cell gradient error     =      9.7E+01 kbar

     number of scf cycles    =   1
     number of bfgs steps    =   0

     enthalpy           new  =     -15.8993346425 Ry

     new trust radius        =       0.0448644255 bohr
     new conv_thr            =       0.0000010000 Ry

     new unit-cell volume =    176.21581 a.u.^3 (    26.11249 Ang^3 )
     density =      3.65780 g/cm^3

CELL_PARAMETERS (alat=  9.04870000)
  -0.491758755  -0.000000000   0.491758755
   0.000000000   0.491758755   0.491758755
  -0.491758755   0.491758755  -0.000000000

ATOMIC_POSITIONS (alat)
Si               0.0000000000        0.0000000000        0.0000000000
Si               0.2458793775        0.2458793775        0.2458793775



     Writing config-only to output data dir ./tmp/vcrelax.save/ :
     XML data file
     NEW-OLD atomic charge density approx. for the potential

     total cpu time spent up to now is        3.7 secs

     Self-consistent Calculation

     iteration #  1     ecut=    60.00 Ry     beta= 0.70
     Davidson diagonalization with overlap
     ethr =  1.00E-06,  avg # of iterations =  6.6

     total cpu time spent up to now is        4.8 secs

     total energy              =     -16.85838384 Ry
     estimated scf accuracy    <       0.00003873 Ry

     iteration #  2     ecut=    60.00 Ry     beta= 0.70
     Davidson diagonalization with overlap
     ethr =  4.84E-07,  avg # of iterations =  1.0

     total cpu time spent up to now is        5.2 secs

     total energy              =     -16.85838737 Ry
     estimated scf accuracy    <       0.00000166 Ry

     iteration #  3     ecut=    60.00 Ry     beta= 0.70
     Davidson diagonalization with overlap
     ethr =  2.08E-08,  avg # of iterations =  1.4

     total cpu time spent up to now is        5.5 secs

     End of self-consistent calculation

          k = 0.0000 0.0000 0.0000 (  1459 PWs)   bands (ev):

    -4.0233  11.4174  11.4174  11.4174  14.0317  14.0317  14.0317  19.9435

          k =-0.1695 0.1695-0.1695 (  1432 PWs)   bands (ev):

    -3.5118   8.3972  10.7628  10.7628  14.6971  14.9462  14.9462  18.4009

          k =-0.3389 0.3389-0.3389 (  1441 PWs)   bands (ev):

    -2.0281   4.4045  10.0799  10.0799  14.5203  14.7286  14.7286  20.0741

          k = 0.5084-0.5084 0.5084 (  1458 PWs)   bands (ev):

    -0.3718   1.8548   9.8598   9.8598  14.2527  14.2527  14.3941  19.4553

          k =-0.0000 0.3389 0.0000 (  1447 PWs)   bands (ev):

    -3.3402   9.5737   9.5838   9.5838  12.7986  15.7382  16.6533  16.6533

          k =-0.1695 0.5084-0.1695 (  1448 PWs)   bands (ev):

    -2.1706   5.9456   8.8431   8.8465  12.9859  15.2415  17.2001  17.4505

          k = 0.6778-0.3389 0.6778 (  1451 PWs)   bands (ev):

    -0.2694   2.6603   7.7203   8.8790  12.9403  16.1733  16.5914  19.1991

          k = 0.5084-0.1695 0.5084 (  1453 PWs)   bands (ev):

    -0.9290   3.6174   7.1935   9.6322  13.7780  15.6875  16.5302  19.2410

          k = 0.3389-0.0000 0.3389 (  1444 PWs)   bands (ev):

    -2.6710   7.0307   7.7412  10.7408  15.1760  15.3424  15.9713  16.9855

          k =-0.0000 0.6778 0.0000 (  1439 PWs)   bands (ev):

    -1.3276   5.8519   7.8879   7.8879  11.2831  12.2480  20.4933  20.4933

          k = 0.8473-0.1695 0.8473 (  1459 PWs)   bands (ev):

     0.3992   3.6825   5.8447   7.7213  11.4508  13.7808  20.1000  21.1931

          k = 0.6778-0.0000 0.6778 (  1464 PWs)   bands (ev):

     0.8794   3.2105   4.5939   8.3785  12.1972  17.4863  19.2520  19.3089

          k = 0.0000-1.0168 0.0000 (  1428 PWs)   bands (ev):

     1.8737   1.8737   7.2990   7.2990  10.9292  10.9292  23.8151  23.8151

          k = 0.6778-0.3389 1.0168 (  1458 PWs)   bands (ev):

    -0.7195   4.8418   6.0389   7.9163  14.3047  14.5792  16.6502  20.0178

          k = 0.5084-0.1695 0.8473 (  1462 PWs)   bands (ev):

     0.9306   2.8156   5.6116   7.1063  14.3870  15.4660  18.0456  19.4449

          k =-0.3389-1.0168-0.0000 (  1458 PWs)   bands (ev):

     2.2101   2.2101   5.7626   5.7626  13.8733  13.8733  19.5606  19.5606

     the Fermi energy is    11.0324 ev

!    total energy              =     -16.85838751 Ry
     estimated scf accuracy    <       0.00000008 Ry

     The total energy is the sum of the following terms:
     one-electron contribution =       8.50757914 Ry
     hartree contribution      =       0.75559063 Ry
     xc contribution           =      -6.75232594 Ry
     ewald contribution        =     -19.36923133 Ry

     convergence has been achieved in   3 iterations

     Forces acting on atoms (cartesian axes, Ry/au):

     atom    1 type  1   force =    -0.00000000    0.00000000   -0.00000000
     atom    2 type  1   force =     0.00000000    0.00000000    0.00000000

     Total force =     0.000000     Total SCF correction =     0.000000


     Computing stress (Cartesian axis) and pressure

          total   stress  (Ry/bohr**3)                   (kbar)     P=      878.56
   0.00597236  -0.00000000   0.00000000          878.56       -0.00        0.00
  -0.00000000   0.00597236   0.00000000           -0.00      878.56        0.00
   0.00000000   0.00000000   0.00597236            0.00        0.00      878.56

     Energy error            =      7.4E-04 Ry
     Gradient error          =      3.9E-32 Ry/Bohr
     Cell gradient error     =      7.9E+01 kbar

     number of scf cycles    =   2
     number of bfgs steps    =   1

     enthalpy           old  =     -15.8993346425 Ry
     enthalpy           new  =     -15.9000749289 Ry

     CASE: enthalpy          _new < enthalpy          _old

     new trust radius        =       0.0195471300 bohr
     new conv_thr            =       0.0000000100 Ry

     new unit-cell volume =    180.13675 a.u.^3 (    26.69351 Ang^3 )
     density =      3.57818 g/cm^3

CELL_PARAMETERS (alat=  9.04870000)
  -0.495379373  -0.000000000   0.495379373
   0.000000000   0.495379373   0.495379373
  -0.495379373   0.495379373  -0.000000000

ATOMIC_POSITIONS (alat)
Si              -0.0000000000        0.0000000000       -0.0000000000
Si               0.2476896863        0.2476896863        0.2476896863



     Writing config-only to output data dir ./tmp/vcrelax.save/ :
     XML data file
     NEW-OLD atomic charge density approx. for the potential

     total cpu time spent up to now is        6.1 secs

     Self-consistent Calculation

     iteration #  1     ecut=    60.00 Ry     beta= 0.70
     Davidson diagonalization with overlap
     ethr =  1.00E-06,  avg # of iterations =  4.5

     Threshold (ethr) on eigenvalues was too large:
     Diagonalizing with lowered threshold

     Davidson diagonalization with overlap
     ethr =  8.88E-08,  avg # of iterations =  1.4

     total cpu time spent up to now is        7.2 secs

     total energy              =     -16.88071411 Ry
     estimated scf accuracy    <       0.00000694 Ry

     iteration #  2     ecut=    60.00 Ry     beta= 0.70
     Davidson diagonalization with overlap
     ethr =  8.68E-08,  avg # of iterations =  1.0

     total cpu time spent up to now is        7.7 secs

     total energy              =     -16.88071466 Ry
     estimated scf accuracy    <       0.00000033 Ry

     iteration #  3     ecut=    60.00 Ry     beta= 0.70
     Davidson diagonalization with overlap
     ethr =  4.17E-09,  avg # of iterations =  1.2

     total cpu time spent up to now is        8.1 secs

     total energy              =     -16.88071469 Ry
     estimated scf accuracy    <       0.00000001 Ry

     iteration #  4     ecut=    60.00 Ry     beta= 0.70
     Davidson diagonalization with overlap
     ethr =  1.80E-10,  avg # of iterations =  2.4

     total cpu time spent up to now is        8.6 secs

     End of self-consistent calculation

          k = 0.0000 0.0000 0.0000 (  1459 PWs)   bands (ev):

    -4.1417  11.0914  11.0914  11.0914  13.7067  13.7067  13.7067  19.3327

          k =-0.1682 0.1682-0.1682 (  1432 PWs)   bands (ev):

    -3.6389   8.1155  10.4482  10.4482  14.3301  14.6057  14.6057  18.0895

          k =-0.3364 0.3364-0.3364 (  1441 PWs)   bands (ev):

    -2.1820   4.1820   9.7707   9.7707  14.1238  14.4254  14.4254  19.7109

          k = 0.5047-0.5047 0.5047 (  1458 PWs)   bands (ev):

    -0.5711   1.6894   9.5504   9.5504  13.9674  13.9674  13.9884  19.1077

          k = 0.0000 0.3364 0.0000 (  1447 PWs)   bands (ev):

    -3.4701   9.2410   9.2954   9.2954  12.4921  15.4546  16.2792  16.2792

          k =-0.1682 0.5047-0.1682 (  1448 PWs)   bands (ev):

    -2.3208   5.6900   8.5438   8.5678  12.6934  14.9441  16.8431  17.0379

          k = 0.6729-0.3364 0.6729 (  1451 PWs)   bands (ev):

    -0.4625   2.4690   7.4431   8.5959  12.6591  15.8493  16.2120  18.7892

          k = 0.5047-0.1682 0.5047 (  1453 PWs)   bands (ev):

    -1.1046   3.4045   6.9319   9.3323  13.4761  15.3723  16.1442  18.8872

          k = 0.3364-0.0000 0.3364 (  1444 PWs)   bands (ev):

    -2.8125   6.7514   7.4878  10.4179  14.8324  15.0003  15.6041  16.6995

          k = 0.0000 0.6729 0.0000 (  1439 PWs)   bands (ev):

    -1.4915   5.5618   7.6254   7.6254  11.0067  12.0007  20.0711  20.0711

          k = 0.8411-0.1682 0.8411 (  1459 PWs)   bands (ev):

     0.2025   3.4278   5.6333   7.4603  11.1888  13.4776  19.7183  20.7481

          k = 0.6729-0.0000 0.6729 (  1464 PWs)   bands (ev):

     0.6631   2.9744   4.4093   8.1051  11.9222  17.1452  18.8565  18.9753

          k = 0.0000-1.0093 0.0000 (  1428 PWs)   bands (ev):

     1.6541   1.6541   7.0449   7.0449  10.6748  10.6748  23.4113  23.4113

          k = 0.6729-0.3364 1.0093 (  1458 PWs)   bands (ev):

    -0.8964   4.5750   5.8164   7.6622  13.9786  14.2878  16.2871  19.6143

          k = 0.5047-0.1682 0.8411 (  1462 PWs)   bands (ev):

     0.7103   2.6079   5.3796   6.8742  14.0827  15.1238  17.7002  19.0449

          k =-0.3364-1.0093 0.0000 (  1458 PWs)   bands (ev):

     1.9750   1.9750   5.5558   5.5558  13.5669  13.5669  19.1686  19.1686

     the Fermi energy is    10.7567 ev

!    total energy              =     -16.88071469 Ry
     estimated scf accuracy    <          6.1E-11 Ry

     The total energy is the sum of the following terms:
     one-electron contribution =       8.29493399 Ry
     hartree contribution      =       0.77315349 Ry
     xc contribution           =      -6.72113624 Ry
     ewald contribution        =     -19.22766593 Ry

     convergence has been achieved in   4 iterations

     Forces acting on atoms (cartesian axes, Ry/au):

     atom    1 type  1   force =     0.00000000    0.00000000   -0.00000000
     atom    2 type  1   force =    -0.00000000   -0.00000000    0.00000000

     Total force =     0.000000     Total SCF correction =     0.000000


     Computing stress (Cartesian axis) and pressure

          total   stress  (Ry/bohr**3)                   (kbar)     P=      797.95
   0.00542436  -0.00000000  -0.00000000          797.95       -0.00       -0.00
  -0.00000000   0.00542436  -0.00000000           -0.00      797.95       -0.00
  -0.00000000  -0.00000000   0.00542436           -0.00       -0.00      797.95

     Energy error            =      1.0E-03 Ry
     Gradient error          =      3.7E-32 Ry/Bohr
     Cell gradient error     =      2.0E+00 kbar

     number of scf cycles    =   3
     number of bfgs steps    =   2

     enthalpy           old  =     -15.9000749289 Ry
     enthalpy           new  =     -15.9010789006 Ry

     CASE: enthalpy          _new < enthalpy          _old

     new trust radius        =       0.0005057250 bohr
     new conv_thr            =       0.0000000100 Ry

     new unit-cell volume =    180.03495 a.u.^3 (    26.67843 Ang^3 )
     density =      3.58020 g/cm^3

CELL_PARAMETERS (alat=  9.04870000)
  -0.495286043  -0.000000000   0.495286043
  -0.000000000   0.495286043   0.495286043
  -0.495286043   0.495286043  -0.000000000

ATOMIC_POSITIONS (alat)
Si               0.0000000000        0.0000000000       -0.0000000000
Si               0.2476430213        0.2476430213        0.2476430213



     Writing config-only to output data dir ./tmp/vcrelax.save/ :
     XML data file
     NEW-OLD atomic charge density approx. for the potential

     total cpu time spent up to now is        9.3 secs

     Self-consistent Calculation

     iteration #  1     ecut=    60.00 Ry     beta= 0.70
     Davidson diagonalization with overlap
     ethr =  1.00E-06,  avg # of iterations =  1.0

     Threshold (ethr) on eigenvalues was too large:
     Diagonalizing with lowered threshold

     Davidson diagonalization with overlap
     ethr =  1.15E-10,  avg # of iterations =  4.1

     total cpu time spent up to now is       10.4 secs

     End of self-consistent calculation

          k = 0.0000 0.0000 0.0000 (  1459 PWs)   bands (ev):

    -4.1388  11.0995  11.0995  11.0995  13.7149  13.7149  13.7149  19.3482

          k =-0.1683 0.1683-0.1683 (  1432 PWs)   bands (ev):

    -3.6357   8.1225  10.4561  10.4561  14.3394  14.6143  14.6143  18.0974

          k =-0.3365 0.3365-0.3365 (  1441 PWs)   bands (ev):

    -2.1782   4.1876   9.7784   9.7784  14.1338  14.4331  14.4331  19.7201

          k = 0.5048-0.5048 0.5048 (  1458 PWs)   bands (ev):

    -0.5662   1.6935   9.5581   9.5581  13.9747  13.9747  13.9986  19.1165

          k = 0.0000 0.3365 0.0000 (  1447 PWs)   bands (ev):

    -3.4669   9.2494   9.3026   9.3026  12.4998  15.4618  16.2886  16.2886

          k =-0.1683 0.5048-0.1683 (  1448 PWs)   bands (ev):

    -2.3170   5.6964   8.5513   8.5748  12.7008  14.9516  16.8521  17.0484

          k = 0.6730-0.3365 0.6730 (  1451 PWs)   bands (ev):

    -0.4576   2.4738   7.4501   8.6030  12.6662  15.8575  16.2216  18.7995

          k = 0.5048-0.1683 0.5048 (  1453 PWs)   bands (ev):

    -1.1003   3.4099   6.9385   9.3399  13.4837  15.3803  16.1539  18.8961

          k = 0.3365 0.0000 0.3365 (  1444 PWs)   bands (ev):

    -2.8090   6.7584   7.4941  10.4260  14.8411  15.0090  15.6134  16.7067

          k = 0.0000 0.6730 0.0000 (  1439 PWs)   bands (ev):

    -1.4874   5.5691   7.6320   7.6320  11.0137  12.0070  20.0817  20.0817

          k = 0.8413-0.1683 0.8413 (  1459 PWs)   bands (ev):

     0.2074   3.4342   5.6386   7.4668  11.1954  13.4852  19.7279  20.7593

          k = 0.6730 0.0000 0.6730 (  1464 PWs)   bands (ev):

     0.6685   2.9803   4.4139   8.1119  11.9291  17.1538  18.8666  18.9837

          k = 0.0000-1.0095 0.0000 (  1428 PWs)   bands (ev):

     1.6595   1.6595   7.0513   7.0513  10.6812  10.6812  23.4215  23.4215

          k = 0.6730-0.3365 1.0095 (  1458 PWs)   bands (ev):

    -0.8920   4.5817   5.8220   7.6685  13.9868  14.2952  16.2963  19.6245

          k = 0.5048-0.1683 0.8413 (  1462 PWs)   bands (ev):

     0.7158   2.6132   5.3854   6.8801  14.0904  15.1325  17.7090  19.0550

          k =-0.3365-1.0095 0.0000 (  1458 PWs)   bands (ev):

     1.9809   1.9809   5.5610   5.5610  13.5746  13.5746  19.1786  19.1786

     the Fermi energy is    10.7636 ev

!    total energy              =     -16.88016183 Ry
     estimated scf accuracy    <          4.6E-09 Ry

     The total energy is the sum of the following terms:
     one-electron contribution =       8.30034699 Ry
     hartree contribution      =       0.77272407 Ry
     xc contribution           =      -6.72194376 Ry
     ewald contribution        =     -19.23128912 Ry

     convergence has been achieved in   1 iterations

     Forces acting on atoms (cartesian axes, Ry/au):

     atom    1 type  1   force =    -0.00000000   -0.00000000    0.00000000
     atom    2 type  1   force =     0.00000000    0.00000000   -0.00000000

     Total force =     0.000000     Total SCF correction =     0.000000


     Computing stress (Cartesian axis) and pressure

          total   stress  (Ry/bohr**3)                   (kbar)     P=      799.99
   0.00543822   0.00000000   0.00000000          799.99        0.00        0.00
   0.00000000   0.00543822  -0.00000000            0.00      799.99       -0.00
   0.00000000   0.00000000   0.00543822            0.00        0.00      799.99

     Energy error            =      7.3E-07 Ry
     Gradient error          =      9.1E-32 Ry/Bohr
     Cell gradient error     =      1.0E-02 kbar

     bfgs converged in   4 scf cycles and   3 bfgs steps
     (criteria: energy <  1.0E-04 Ry, force <  1.0E-03 Ry/Bohr, cell <  5.0E-01 kbar)

     End of BFGS Geometry Optimization

     Final enthalpy           =     -15.9010796262 Ry

     File ./tmp/vcrelax.bfgs deleted, as requested
Begin final coordinates
     new unit-cell volume =    180.03495 a.u.^3 (    26.67843 Ang^3 )
     density =      3.58020 g/cm^3

CELL_PARAMETERS (alat=  9.04870000)
  -0.495286043  -0.000000000   0.495286043
  -0.000000000   0.495286043   0.495286043
  -0.495286043   0.495286043  -0.000000000

ATOMIC_POSITIONS (alat)
Si               0.0000000000        0.0000000000       -0.0000000000
Si               0.2476430213        0.2476430213        0.2476430213
End final coordinates



     Writing config-only to output data dir ./tmp/vcrelax.save/ :
     XML data file

     Final scf calculation at the relaxed structure.
     The G-vectors are recalculated for the final unit cell
     Results may differ from those at the preceding step.

     G-vector sticks info
     --------------------
     sticks:   dense  smooth     PW     G-vecs:    dense   smooth      PW
     Sum         673     673    199                11311    11311    1917

     Using Slab Decomposition



     bravais-lattice index     =            2
     lattice parameter (alat)  =       9.0487  a.u.
     unit-cell volume          =     180.0350 (a.u.)^3
     number of atoms/cell      =            2
     number of atomic types    =            1
     number of electrons       =         8.00
     number of Kohn-Sham states=            8
     kinetic-energy cutoff     =      60.0000  Ry
     charge density cutoff     =     240.0000  Ry
     scf convergence threshold =      1.0E-08
     mixing beta               =       0.7000
     number of iterations used =            8  plain     mixing
     press convergence thresh. =      5.0E-01
     Exchange-correlation= SLA  PW   NOGX NOGC
                           (   1   4   0   0   0   0   0)

     celldm(1)=   9.048700  celldm(2)=   0.000000  celldm(3)=   0.000000
     celldm(4)=   0.000000  celldm(5)=   0.000000  celldm(6)=   0.000000

     crystal axes: (cart. coord. in units of alat)
               a(1) = (  -0.495286  -0.000000   0.495286 )  
               a(2) = (  -0.000000   0.495286   0.495286 )  
               a(3) = (  -0.495286   0.495286  -0.000000 )  

     reciprocal axes: (cart. coord. in units 2 pi/alat)
               b(1) = ( -1.009518 -1.009518  1.009518 )  
               b(2) = (  1.009518  1.009518  1.009518 )  
               b(3) = ( -1.009518  1.009518 -1.009518 )  


     PseudoPot. # 1 for Si read from file:
     ./PSEUDO/Si.LDA.upf
     MD5 check sum: 9e2d726316af3d4752eea8ab0afbb951
     Pseudo is Norm-conserving + core correction, Zval =  4.0
     Generated using ONCVPSP code by D. R. Hamann
     Using radial grid of 1510 points,  6 beta functions with: 
                l(1) =   0
                l(2) =   0
                l(3) =   1
                l(4) =   1
                l(5) =   2
                l(6) =   2

     atomic species   valence    mass     pseudopotential
     Si                4.00    28.76000     Si( 1.00)

     48 Sym. Ops., with inversion, found (24 have fractional translation)



   Cartesian axes

     site n.     atom                  positions (alat units)
         1        Si     tau(   1) = (   0.0000000   0.0000000  -0.0000000  )
         2        Si     tau(   2) = (   0.2476430   0.2476430   0.2476430  )

     number of k points=    16 (tetrahedron method)
                       cart. coord. in units 2pi/alat
        k(    1) = (   0.0000000   0.0000000   0.0000000), wk =   0.0092593
        k(    2) = (  -0.1682529   0.1682529  -0.1682529), wk =   0.0740741
        k(    3) = (  -0.3365059   0.3365059  -0.3365059), wk =   0.0740741
        k(    4) = (   0.5047588  -0.5047588   0.5047588), wk =   0.0370370
        k(    5) = (   0.0000000   0.3365059   0.0000000), wk =   0.0555556
        k(    6) = (  -0.1682529   0.5047588  -0.1682529), wk =   0.2222222
        k(    7) = (   0.6730118  -0.3365059   0.6730118), wk =   0.2222222
        k(    8) = (   0.5047588  -0.1682529   0.5047588), wk =   0.2222222
        k(    9) = (   0.3365059   0.0000000   0.3365059), wk =   0.1111111
        k(   10) = (   0.0000000   0.6730118   0.0000000), wk =   0.0555556
        k(   11) = (   0.8412647  -0.1682529   0.8412647), wk =   0.2222222
        k(   12) = (   0.6730118   0.0000000   0.6730118), wk =   0.1111111
        k(   13) = (   0.0000000  -1.0095176   0.0000000), wk =   0.0277778
        k(   14) = (   0.6730118  -0.3365059   1.0095176), wk =   0.2222222
        k(   15) = (   0.5047588  -0.1682529   0.8412647), wk =   0.2222222
        k(   16) = (  -0.3365059  -1.0095176   0.0000000), wk =   0.1111111

     Dense  grid:    11311 G-vectors     FFT dimensions: (  32,  32,  32)

     Estimated max dynamical RAM per process >      13.94 MB

     Initial potential from superposition of free atoms

     starting charge       7.9989, renormalised to       8.0000
     Starting wfcs are    8 randomized atomic wfcs

     total cpu time spent up to now is       11.7 secs

     Self-consistent Calculation

     iteration #  1     ecut=    60.00 Ry     beta= 0.70
     Davidson diagonalization with overlap
     c_bands:  1 eigenvalues not converged
     c_bands:  1 eigenvalues not converged
     c_bands:  1 eigenvalues not converged
     c_bands:  1 eigenvalues not converged
     ethr =  1.00E-06,  avg # of iterations = 15.8

     total cpu time spent up to now is       13.2 secs

     total energy              =     -16.87027276 Ry
     estimated scf accuracy    <       0.10843055 Ry

     iteration #  2     ecut=    60.00 Ry     beta= 0.70
     Davidson diagonalization with overlap
     ethr =  1.36E-03,  avg # of iterations =  1.0

     total cpu time spent up to now is       13.6 secs

     total energy              =     -16.87988142 Ry
     estimated scf accuracy    <       0.00142283 Ry

     iteration #  3     ecut=    60.00 Ry     beta= 0.70
     Davidson diagonalization with overlap
     ethr =  1.78E-05,  avg # of iterations =  2.4

     total cpu time spent up to now is       14.0 secs

     total energy              =     -16.88015210 Ry
     estimated scf accuracy    <       0.00005469 Ry

     iteration #  4     ecut=    60.00 Ry     beta= 0.70
     Davidson diagonalization with overlap
     ethr =  6.84E-07,  avg # of iterations =  2.2

     total cpu time spent up to now is       14.4 secs

     total energy              =     -16.88016100 Ry
     estimated scf accuracy    <       0.00000032 Ry

     iteration #  5     ecut=    60.00 Ry     beta= 0.70
     Davidson diagonalization with overlap
     ethr =  3.99E-09,  avg # of iterations =  3.8

     total cpu time spent up to now is       14.8 secs

     total energy              =     -16.88016164 Ry
     estimated scf accuracy    <       0.00000004 Ry

     iteration #  6     ecut=    60.00 Ry     beta= 0.70
     Davidson diagonalization with overlap
     ethr =  5.16E-10,  avg # of iterations =  1.3

     total cpu time spent up to now is       15.3 secs

     End of self-consistent calculation

          k = 0.0000 0.0000 0.0000 (  1411 PWs)   bands (ev):

    -4.1387  11.0998  11.0998  11.0998  13.7150  13.7150  13.7150  19.3484

          k =-0.1683 0.1683-0.1683 (  1417 PWs)   bands (ev):

    -3.6356   8.1227  10.4563  10.4563  14.3395  14.6145  14.6145  18.0975

          k =-0.3365 0.3365-0.3365 (  1411 PWs)   bands (ev):

    -2.1781   4.1877   9.7786   9.7786  14.1340  14.4332  14.4332  19.7042

          k = 0.5048-0.5048 0.5048 (  1404 PWs)   bands (ev):

    -0.5660   1.6936   9.5583   9.5583  13.9747  13.9747  13.9988  19.1165

          k = 0.0000 0.3365 0.0000 (  1407 PWs)   bands (ev):

    -3.4667   9.2496   9.3028   9.3028  12.4999  15.4619  16.2888  16.2888

          k =-0.1683 0.5048-0.1683 (  1410 PWs)   bands (ev):

    -2.3169   5.6965   8.5515   8.5749  12.7009  14.9517  16.8523  17.0485

          k = 0.6730-0.3365 0.6730 (  1421 PWs)   bands (ev):

    -0.4575   2.4739   7.4502   8.6032  12.6663  15.8576  16.2217  18.7997

          k = 0.5048-0.1683 0.5048 (  1415 PWs)   bands (ev):

    -1.1001   3.4100   6.9386   9.3400  13.4838  15.3803  16.1541  18.8962

          k = 0.3365 0.0000 0.3365 (  1400 PWs)   bands (ev):

    -2.8089   6.7586   7.4943  10.4262  14.8412  15.0091  15.6135  16.7068

          k = 0.0000 0.6730 0.0000 (  1403 PWs)   bands (ev):

    -1.4873   5.5693   7.6321   7.6321  11.0138  12.0070  20.0819  20.0819

          k = 0.8413-0.1683 0.8413 (  1420 PWs)   bands (ev):

     0.2076   3.4344   5.6387   7.4670  11.1955  13.4853  19.7281  20.7595

          k = 0.6730 0.0000 0.6730 (  1420 PWs)   bands (ev):

     0.6687   2.9804   4.4140   8.1121  11.9292  17.1539  18.8667  18.9838

          k = 0.0000-1.0095 0.0000 (  1428 PWs)   bands (ev):

     1.6597   1.6597   7.0514   7.0514  10.6813  10.6813  23.4217  23.4218

          k = 0.6730-0.3365 1.0095 (  1413 PWs)   bands (ev):

    -0.8918   4.5819   5.8221   7.6687  13.9869  14.2953  16.2964  19.6247

          k = 0.5048-0.1683 0.8413 (  1410 PWs)   bands (ev):

     0.7160   2.6133   5.3855   6.8802  14.0905  15.1326  17.7091  19.0551

          k =-0.3365-1.0095 0.0000 (  1406 PWs)   bands (ev):

     1.9811   1.9811   5.5611   5.5611  13.5747  13.5747  19.1787  19.1787

     the Fermi energy is    10.7637 ev

!    total energy              =     -16.88016165 Ry
     estimated scf accuracy    <          3.3E-09 Ry

     The total energy is the sum of the following terms:
     one-electron contribution =       8.30036806 Ry
     hartree contribution      =       0.77268499 Ry
     xc contribution           =      -6.72192558 Ry
     ewald contribution        =     -19.23128912 Ry

     convergence has been achieved in   6 iterations

     Forces acting on atoms (cartesian axes, Ry/au):

     atom    1 type  1   force =     0.00000000    0.00000000    0.00000000
     atom    2 type  1   force =    -0.00000000   -0.00000000   -0.00000000

     Total force =     0.000000     Total SCF correction =     0.000000


     Computing stress (Cartesian axis) and pressure

          total   stress  (Ry/bohr**3)                   (kbar)     P=      799.94
   0.00543785   0.00000000  -0.00000000          799.94        0.00       -0.00
  -0.00000000   0.00543785   0.00000000           -0.00      799.94        0.00
  -0.00000000   0.00000000   0.00543785           -0.00        0.00      799.94


     Writing all to output data dir ./tmp/vcrelax.save/ :
     XML data file, charge density, pseudopotentials, collected wavefunctions

     init_run     :      1.07s CPU      1.18s WALL (       2 calls)
     electrons    :     11.29s CPU     11.60s WALL (       5 calls)
     update_pot   :      0.02s CPU      0.02s WALL (       3 calls)
     forces       :      0.33s CPU      0.34s WALL (       5 calls)
     stress       :      2.56s CPU      2.60s WALL (       5 calls)

     Called by init_run:
     wfcinit      :      0.46s CPU      0.46s WALL (       2 calls)
     potinit      :      0.06s CPU      0.06s WALL (       2 calls)
     hinit0       :      0.54s CPU      0.62s WALL (       2 calls)

     Called by electrons:
     c_bands      :      9.49s CPU      9.75s WALL (      20 calls)
     sum_band     :      1.72s CPU      1.75s WALL (      20 calls)
     v_of_rho     :      0.07s CPU      0.07s WALL (      23 calls)
     mix_rho      :      0.02s CPU      0.02s WALL (      20 calls)

     Called by c_bands:
     init_us_2    :      0.40s CPU      0.40s WALL (     832 calls)
     init_us_2:cp :      0.39s CPU      0.40s WALL (     832 calls)
     cegterg      :      8.48s CPU      8.72s WALL (     320 calls)

     Called by *egterg:
     cdiaghg      :      0.15s CPU      0.15s WALL (    1313 calls)
     h_psi        :      7.08s CPU      7.29s WALL (    1425 calls)
     g_psi        :      0.04s CPU      0.04s WALL (    1073 calls)

     Called by h_psi:
     h_psi:calbec :      1.07s CPU      1.13s WALL (    1425 calls)
     vloc_psi     :      5.07s CPU      5.17s WALL (    1425 calls)
     add_vuspsi   :      0.88s CPU      0.92s WALL (    1425 calls)

     General routines
     calbec       :      1.39s CPU      1.46s WALL (    1825 calls)
     fft          :      0.22s CPU      0.22s WALL (     109 calls)
     ffts         :      0.01s CPU      0.01s WALL (      20 calls)
     fftw         :      4.48s CPU      4.59s WALL (   19178 calls)


     PWSCF        :     15.38s CPU     15.87s WALL


   This run was terminated on:  22:10:57  15Dec2024            

=------------------------------------------------------------------------------=
   JOB DONE.
=------------------------------------------------------------------------------=
