
     Program PWSCF v.7.3 starts on 15Dec2024 at 22:10: 2 

     This program is part of the open-source Quantum ESPRESSO suite
     for quantum simulation of materials; please cite
         "P. Giannozzi et al., J. Phys.:Condens. Matter 21 395502 (2009);
         "P. Giannozzi et al., J. Phys.:Condens. Matter 29 465901 (2017);
         "P. Giannozzi et al., J. Chem. Phys. 152 154105 (2020);
          URL http://www.quantum-espresso.org", 
     in publications or presentations arising from this work. More details at
     http://www.quantum-espresso.org/quote

     Serial version
     5241 MiB available memory on the printing compute node when the environment starts

     Waiting for input...
     Reading input from standard input
     Message from routine read_cards :
     DEPRECATED: no units specified in ATOMIC_POSITIONS card
     Message from routine read_cards :
     ATOMIC_POSITIONS: units set to alat

     Current dimensions of program PWSCF are:
     Max number of different atomic species (ntypx) = 10
     Max number of k-points (npk) =  40000
     Max angular momentum in pseudopotentials (lmaxx) =  4
     Message from routine iosys:
     BEWARE:  force calculation with tetrahedra (not recommanded)
     Message from routine iosys:
     BEWARE: stress calculation with tetrahedra (not recommanded)
     [opt_tetra]  Optimized tetrahedron method is used.


     G-vector sticks info
     --------------------
     sticks:   dense  smooth     PW     G-vecs:    dense   smooth      PW
     Sum         703     703    211                12387    12387    2085

     Using Slab Decomposition



     bravais-lattice index     =            2
     lattice parameter (alat)  =       9.2487  a.u.
     unit-cell volume          =     197.7799 (a.u.)^3
     number of atoms/cell      =            2
     number of atomic types    =            1
     number of electrons       =         8.00
     number of Kohn-Sham states=            8
     kinetic-energy cutoff     =      60.0000  Ry
     charge density cutoff     =     240.0000  Ry
     scf convergence threshold =      1.0E-06
     mixing beta               =       0.7000
     number of iterations used =            8  plain     mixing
     energy convergence thresh.=      1.0E-04
     force convergence thresh. =      1.0E-03
     press convergence thresh. =      5.0E-01
     Exchange-correlation= SLA  PW   NOGX NOGC
                           (   1   4   0   0   0   0   0)
     nstep                     =           50


     celldm(1)=   9.248700  celldm(2)=   0.000000  celldm(3)=   0.000000
     celldm(4)=   0.000000  celldm(5)=   0.000000  celldm(6)=   0.000000

     crystal axes: (cart. coord. in units of alat)
               a(1) = (  -0.500000   0.000000   0.500000 )  
               a(2) = (   0.000000   0.500000   0.500000 )  
               a(3) = (  -0.500000   0.500000   0.000000 )  

     reciprocal axes: (cart. coord. in units 2 pi/alat)
               b(1) = ( -1.000000 -1.000000  1.000000 )  
               b(2) = (  1.000000  1.000000  1.000000 )  
               b(3) = ( -1.000000  1.000000 -1.000000 )  


     PseudoPot. # 1 for Si read from file:
     ./PSEUDO/Si.LDA.upf
     MD5 check sum: 9e2d726316af3d4752eea8ab0afbb951
     Pseudo is Norm-conserving + core correction, Zval =  4.0
     Generated using ONCVPSP code by D. R. Hamann
     Using radial grid of 1510 points,  6 beta functions with: 
                l(1) =   0
                l(2) =   0
                l(3) =   1
                l(4) =   1
                l(5) =   2
                l(6) =   2

     atomic species   valence    mass     pseudopotential
     Si                4.00    28.76000     Si( 1.00)

     48 Sym. Ops., with inversion, found (24 have fractional translation)



   Cartesian axes

     site n.     atom                  positions (alat units)
         1        Si     tau(   1) = (   0.0000000   0.0000000   0.0000000  )
         2        Si     tau(   2) = (   0.2500000   0.2500000   0.2500000  )

     number of k points=    16 (tetrahedron method)
                       cart. coord. in units 2pi/alat
        k(    1) = (   0.0000000   0.0000000   0.0000000), wk =   0.0092593
        k(    2) = (  -0.1666667   0.1666667  -0.1666667), wk =   0.0740741
        k(    3) = (  -0.3333333   0.3333333  -0.3333333), wk =   0.0740741
        k(    4) = (   0.5000000  -0.5000000   0.5000000), wk =   0.0370370
        k(    5) = (   0.0000000   0.3333333   0.0000000), wk =   0.0555556
        k(    6) = (  -0.1666667   0.5000000  -0.1666667), wk =   0.2222222
        k(    7) = (   0.6666667  -0.3333333   0.6666667), wk =   0.2222222
        k(    8) = (   0.5000000  -0.1666667   0.5000000), wk =   0.2222222
        k(    9) = (   0.3333333   0.0000000   0.3333333), wk =   0.1111111
        k(   10) = (   0.0000000   0.6666667   0.0000000), wk =   0.0555556
        k(   11) = (   0.8333333  -0.1666667   0.8333333), wk =   0.2222222
        k(   12) = (   0.6666667   0.0000000   0.6666667), wk =   0.1111111
        k(   13) = (   0.0000000  -1.0000000   0.0000000), wk =   0.0277778
        k(   14) = (   0.6666667  -0.3333333   1.0000000), wk =   0.2222222
        k(   15) = (   0.5000000  -0.1666667   0.8333333), wk =   0.2222222
        k(   16) = (  -0.3333333  -1.0000000   0.0000000), wk =   0.1111111

     Dense  grid:    12387 G-vectors     FFT dimensions: (  36,  36,  36)

     Estimated max dynamical RAM per process >      15.69 MB

     Initial potential from superposition of free atoms

     starting charge       7.9989, renormalised to       8.0000
     Starting wfcs are    8 randomized atomic wfcs

     total cpu time spent up to now is        0.8 secs

     Self-consistent Calculation

     iteration #  1     ecut=    60.00 Ry     beta= 0.70
     Davidson diagonalization with overlap
     ethr =  1.00E-02,  avg # of iterations =  5.1

     total cpu time spent up to now is        1.8 secs

     total energy              =     -16.95044705 Ry
     estimated scf accuracy    <       0.09005086 Ry

     iteration #  2     ecut=    60.00 Ry     beta= 0.70
     Davidson diagonalization with overlap
     ethr =  1.13E-03,  avg # of iterations =  1.2

     total cpu time spent up to now is        2.4 secs

     total energy              =     -16.95756677 Ry
     estimated scf accuracy    <       0.00191671 Ry

     iteration #  3     ecut=    60.00 Ry     beta= 0.70
     Davidson diagonalization with overlap
     ethr =  2.40E-05,  avg # of iterations =  4.4

     total cpu time spent up to now is        3.2 secs

     total energy              =     -16.95790929 Ry
     estimated scf accuracy    <       0.00005336 Ry

     iteration #  4     ecut=    60.00 Ry     beta= 0.70
     Davidson diagonalization with overlap
     ethr =  6.67E-07,  avg # of iterations =  3.8

     total cpu time spent up to now is        4.0 secs

     End of self-consistent calculation

          k = 0.0000 0.0000 0.0000 (  1471 PWs)   bands (ev):

    -4.6168   9.7697   9.7697   9.7697  12.3836  12.3836  12.3837  16.7940

          k =-0.1667 0.1667-0.1667 (  1531 PWs)   bands (ev):

    -4.1495   6.9691   9.1744   9.1744  12.8265  13.2189  13.2190  16.8182

          k =-0.3333 0.3333-0.3333 (  1540 PWs)   bands (ev):

    -2.8034   3.2797   8.5221   8.5221  12.4980  13.1829  13.1830  18.2262

          k = 0.5000-0.5000 0.5000 (  1538 PWs)   bands (ev):

    -1.3724   1.0157   8.3032   8.3032  12.3275  12.7985  12.7985  17.6904

          k = 0.0000 0.3333 0.0000 (  1531 PWs)   bands (ev):

    -3.9923   7.8887   8.1281   8.1281  11.2463  14.2780  14.7539  14.7539

          k =-0.1667 0.5000-0.1667 (  1549 PWs)   bands (ev):

    -2.9267   4.6473   7.3393   7.4419  11.4919  13.7363  15.3428  15.3809

          k = 0.6667-0.3333 0.6667 (  1555 PWs)   bands (ev):

    -1.2425   1.6910   6.3262   7.4529  11.5044  14.5238  14.6553  17.1214

          k = 0.5000-0.1667 0.5000 (  1557 PWs)   bands (ev):

    -1.8149   2.5390   5.8781   8.1215  12.2343  14.0784  14.5693  17.4489

          k = 0.3333 0.0000 0.3333 (  1558 PWs)   bands (ev):

    -3.3829   5.6139   6.4648   9.1141  13.4125  13.6052  14.1093  15.5309

          k = 0.0000 0.6667 0.0000 (  1552 PWs)   bands (ev):

    -2.1538   4.3844   6.5667   6.5667   9.8847  10.9866  18.3401  18.3401

          k = 0.8333-0.1667 0.8333 (  1553 PWs)   bands (ev):

    -0.5948   2.3964   4.7792   6.4080  10.1210  12.2446  18.1488  18.9137

          k = 0.6667 0.0000 0.6667 (  1550 PWs)   bands (ev):

    -0.2105   2.0149   3.6659   7.0017  10.8009  15.7582  17.2365  18.5214

          k = 0.0000-1.0000 0.0000 (  1588 PWs)   bands (ev):

     0.7626   0.7626   6.0215   6.0215   9.6405   9.6405  22.5913  22.5914

          k = 0.6667-0.3333 1.0000 (  1564 PWs)   bands (ev):

    -1.6121   3.4914   4.9215   6.6332  12.6510  13.1047  14.7855  17.9586

          k = 0.5000-0.1667 0.8333 (  1556 PWs)   bands (ev):

    -0.1770   1.7518   4.4574   5.9330  12.8488  13.7204  16.2857  17.3997

          k =-0.3333-1.0000 0.0000 (  1558 PWs)   bands (ev):

     1.0236   1.0236   4.7203   4.7203  12.3201  12.3202  17.5558  17.5560

     the Fermi energy is     9.6392 ev

!    total energy              =     -16.95792331 Ry
     estimated scf accuracy    <       0.00000013 Ry

     The total energy is the sum of the following terms:
     one-electron contribution =       7.42450232 Ry
     hartree contribution      =       0.84743735 Ry
     xc contribution           =      -6.59183413 Ry
     ewald contribution        =     -18.63802885 Ry

     convergence has been achieved in   4 iterations

     Forces acting on atoms (cartesian axes, Ry/au):

     atom    1 type  1   force =    -0.00000000   -0.00000000    0.00000000
     atom    2 type  1   force =     0.00000000    0.00000000   -0.00000000

     Total force =     0.000000     Total SCF correction =     0.000000


     Computing stress (Cartesian axis) and pressure

          total   stress  (Ry/bohr**3)                   (kbar)     P=      507.33
   0.00344878   0.00000000   0.00000000          507.33        0.00        0.00
   0.00000000   0.00344878  -0.00000000            0.00      507.33       -0.00
   0.00000000  -0.00000000   0.00344878            0.00       -0.00      507.33


     BFGS Geometry Optimization
     Energy error            =      0.0E+00 Ry
     Gradient error          =      1.0E-33 Ry/Bohr
     Cell gradient error     =      9.3E+01 kbar

     number of scf cycles    =   1
     number of bfgs steps    =   0

     enthalpy           new  =     -16.1512351748 Ry

     new trust radius        =       0.0442956651 bohr
     new conv_thr            =       0.0000010000 Ry

     new unit-cell volume =    188.58202 a.u.^3 (    27.94497 Ang^3 )
     density =      3.41794 g/cm^3

CELL_PARAMETERS (alat=  9.24870000)
  -0.492125732  -0.000000000   0.492125732
   0.000000000   0.492125732   0.492125732
  -0.492125732   0.492125732  -0.000000000

ATOMIC_POSITIONS (alat)
Si              -0.0000000000       -0.0000000000        0.0000000000
Si               0.2460628660        0.2460628660        0.2460628660



     Writing config-only to output data dir ./tmp/vcrelax.save/ :
     XML data file
     NEW-OLD atomic charge density approx. for the potential

     total cpu time spent up to now is        5.1 secs

     Self-consistent Calculation

     iteration #  1     ecut=    60.00 Ry     beta= 0.70
     Davidson diagonalization with overlap
     ethr =  1.00E-06,  avg # of iterations =  6.9

     total cpu time spent up to now is        6.2 secs

     total energy              =     -16.92201539 Ry
     estimated scf accuracy    <       0.00004982 Ry

     iteration #  2     ecut=    60.00 Ry     beta= 0.70
     Davidson diagonalization with overlap
     ethr =  6.23E-07,  avg # of iterations =  1.2

     total cpu time spent up to now is        6.7 secs

     total energy              =     -16.92202063 Ry
     estimated scf accuracy    <       0.00000139 Ry

     iteration #  3     ecut=    60.00 Ry     beta= 0.70
     Davidson diagonalization with overlap
     ethr =  1.74E-08,  avg # of iterations =  2.5

     total cpu time spent up to now is        7.2 secs

     End of self-consistent calculation

          k = 0.0000 0.0000 0.0000 (  1471 PWs)   bands (ev):

    -4.3802  10.4309  10.4309  10.4309  13.0466  13.0466  13.0466  18.0759

          k =-0.1693 0.1693-0.1693 (  1531 PWs)   bands (ev):

    -3.8950   7.5435   9.8113   9.8113  13.5821  13.9140  13.9141  17.4558

          k =-0.3387 0.3387-0.3387 (  1540 PWs)   bands (ev):

    -2.4931   3.7311   9.1456   9.1456  13.3151  13.8072  13.8072  18.9710

          k = 0.5080-0.5080 0.5080 (  1538 PWs)   bands (ev):

    -0.9729   1.3532   8.9256   8.9256  13.1616  13.3858  13.3858  18.4004

          k =-0.0000 0.3387 0.0000 (  1531 PWs)   bands (ev):

    -3.7320   8.5661   8.7116   8.7116  11.8700  14.8725  15.5187  15.5187

          k =-0.1693 0.5080-0.1693 (  1549 PWs)   bands (ev):

    -2.6242   5.1703   7.9399   8.0044  12.0960  14.3409  16.1156  16.1954

          k = 0.6773-0.3387 0.6773 (  1555 PWs)   bands (ev):

    -0.8528   2.0807   6.8835   8.0238  12.0850  15.1892  15.4378  17.9567

          k = 0.5080-0.1693 0.5080 (  1557 PWs)   bands (ev):

    -1.4599   2.9726   6.4038   8.7262  12.8592  14.7289  15.3589  18.1690

          k = 0.3387-0.0000 0.3387 (  1558 PWs)   bands (ev):

    -3.0983   6.1841   6.9756   9.7653  14.1285  14.3047  14.8583  16.1171

          k =-0.0000 0.6773 0.0000 (  1552 PWs)   bands (ev):

    -1.8229   4.9738   7.0952   7.0952  10.4461  11.4961  19.2100  19.2100

          k = 0.8467-0.1693 0.8467 (  1553 PWs)   bands (ev):

    -0.1960   2.9123   5.2058   6.9332  10.6561  12.8620  18.9385  19.8375

          k = 0.6773-0.0000 0.6773 (  1550 PWs)   bands (ev):

     0.2259   2.4954   4.0366   7.5526  11.3629  16.4527  18.0504  18.2969

          k = 0.0000-1.0160-0.0000 (  1588 PWs)   bands (ev):

     1.2088   1.2088   6.5321   6.5321  10.1583  10.1583  22.5896  23.7234

          k = 0.6773-0.3387 1.0160 (  1564 PWs)   bands (ev):

    -1.2543   4.0339   5.3677   7.1476  13.3161  13.6968  15.5428  18.7911

          k = 0.5080-0.1693 0.8467 (  1556 PWs)   bands (ev):

     0.2658   2.1830   4.9149   6.4039  13.4659  14.4259  16.9963  18.2275

          k =-0.3387-1.0160-0.0000 (  1558 PWs)   bands (ev):

     1.4992   1.4992   5.1375   5.1375  12.9446  12.9446  18.3675  18.3675

     the Fermi energy is    10.1978 ev

!    total energy              =     -16.92202078 Ry
     estimated scf accuracy    <       0.00000010 Ry

     The total energy is the sum of the following terms:
     one-electron contribution =       7.86168591 Ry
     hartree contribution      =       0.80965230 Ry
     xc contribution           =      -6.65711197 Ry
     ewald contribution        =     -18.93624702 Ry

     convergence has been achieved in   3 iterations

     Forces acting on atoms (cartesian axes, Ry/au):

     atom    1 type  1   force =    -0.00000000    0.00000000   -0.00000000
     atom    2 type  1   force =    -0.00000000   -0.00000000   -0.00000000

     Total force =     0.000000     Total SCF correction =     0.000000


     Computing stress (Cartesian axis) and pressure

          total   stress  (Ry/bohr**3)                   (kbar)     P=      645.57
   0.00438848   0.00000000   0.00000000          645.57        0.00        0.00
   0.00000000   0.00438848  -0.00000000            0.00      645.57       -0.00
   0.00000000  -0.00000000   0.00438848            0.00       -0.00      645.57

     Energy error            =      1.6E-03 Ry
     Gradient error          =      3.2E-32 Ry/Bohr
     Cell gradient error     =      4.6E+01 kbar

     number of scf cycles    =   2
     number of bfgs steps    =   1

     enthalpy           old  =     -16.1512351748 Ry
     enthalpy           new  =     -16.1528480540 Ry

     CASE: enthalpy          _new < enthalpy          _old

     new trust radius        =       0.0141794223 bohr
     new conv_thr            =       0.0000000100 Ry

     new unit-cell volume =    191.51792 a.u.^3 (    28.38003 Ang^3 )
     density =      3.36554 g/cm^3

CELL_PARAMETERS (alat=  9.24870000)
  -0.494666438  -0.000000000   0.494666438
   0.000000000   0.494666438   0.494666438
  -0.494666438   0.494666438  -0.000000000

ATOMIC_POSITIONS (alat)
Si              -0.0000000000        0.0000000000        0.0000000000
Si               0.2473332191        0.2473332191        0.2473332191



     Writing config-only to output data dir ./tmp/vcrelax.save/ :
     XML data file
     NEW-OLD atomic charge density approx. for the potential

     total cpu time spent up to now is        7.7 secs

     Self-consistent Calculation

     iteration #  1     ecut=    60.00 Ry     beta= 0.70
     Davidson diagonalization with overlap
     ethr =  1.00E-06,  avg # of iterations =  4.0

     Threshold (ethr) on eigenvalues was too large:
     Diagonalizing with lowered threshold

     Davidson diagonalization with overlap
     ethr =  6.15E-08,  avg # of iterations =  1.6

     total cpu time spent up to now is        9.2 secs

     total energy              =     -16.93442976 Ry
     estimated scf accuracy    <       0.00000483 Ry

     iteration #  2     ecut=    60.00 Ry     beta= 0.70
     Davidson diagonalization with overlap
     ethr =  6.04E-08,  avg # of iterations =  1.1

     total cpu time spent up to now is       10.0 secs

     total energy              =     -16.93443023 Ry
     estimated scf accuracy    <       0.00000015 Ry

     iteration #  3     ecut=    60.00 Ry     beta= 0.70
     Davidson diagonalization with overlap
     ethr =  1.90E-09,  avg # of iterations =  1.7

     total cpu time spent up to now is       10.6 secs

     End of self-consistent calculation

          k = 0.0000 0.0000 0.0000 (  1471 PWs)   bands (ev):

    -4.4580  10.2138  10.2138  10.2138  12.8292  12.8292  12.8292  17.6575

          k =-0.1685 0.1685-0.1685 (  1531 PWs)   bands (ev):

    -3.9786   7.3552   9.6022   9.6022  13.3349  13.6861  13.6861  17.2468

          k =-0.3369 0.3369-0.3369 (  1540 PWs)   bands (ev):

    -2.5950   3.5830   8.9407   8.9407  13.0477  13.6028  13.6028  18.7273

          k = 0.5054-0.5054 0.5054 (  1538 PWs)   bands (ev):

    -1.1043   1.2427   8.7209   8.7209  12.8886  13.1935  13.1935  18.1679

          k =-0.0000 0.3369 0.0000 (  1531 PWs)   bands (ev):

    -3.8175   8.3440   8.5200   8.5200  11.6654  14.6788  15.2680  15.2680

          k =-0.1685 0.5054-0.1685 (  1549 PWs)   bands (ev):

    -2.7235   4.9990   7.7423   7.8196  11.8984  14.1426  15.8750  15.9165

          k = 0.6739-0.3369 0.6739 (  1555 PWs)   bands (ev):

    -0.9807   1.9530   6.7002   7.8361  11.8952  14.9712  15.1818  17.6826

          k = 0.5054-0.1685 0.5054 (  1557 PWs)   bands (ev):

    -1.5764   2.8305   6.2309   8.5275  12.6550  14.5160  15.1001  17.9326

          k = 0.3369 0.0000 0.3369 (  1558 PWs)   bands (ev):

    -3.1917   5.9972   6.8077   9.5513  13.8948  14.0754  14.6127  15.9250

          k =-0.0000 0.6739 0.0000 (  1552 PWs)   bands (ev):

    -1.9315   4.7804   6.9214   6.9214  10.2619  11.3295  18.9252  18.9252

          k = 0.8423-0.1685 0.8423 (  1553 PWs)   bands (ev):

    -0.3268   2.7429   5.0656   6.7605  10.4808  12.6596  18.6802  19.5356

          k = 0.6739 0.0000 0.6739 (  1550 PWs)   bands (ev):

     0.0826   2.3379   3.9148   7.3715  11.1788  16.2249  17.7839  18.0734

          k = 0.0000-1.0108-0.0000 (  1588 PWs)   bands (ev):

     1.0624   1.0624   6.3642   6.3642   9.9885   9.9885  22.3184  23.3520

          k = 0.6739-0.3369 1.0108 (  1564 PWs)   bands (ev):

    -1.3717   3.8560   5.2209   6.9787  13.0980  13.5026  15.2955  18.5187

          k = 0.5054-0.1685 0.8423 (  1556 PWs)   bands (ev):

     0.1203   2.0422   4.7640   6.2493  13.2634  14.1951  16.7638  17.9567

          k =-0.3369-1.0108 0.0000 (  1558 PWs)   bands (ev):

     1.3431   1.3431   5.0005   5.0005  12.7399  12.7399  18.1021  18.1021

     the Fermi energy is    10.0144 ev

!    total energy              =     -16.93443025 Ry
     estimated scf accuracy    <          9.4E-09 Ry

     The total energy is the sum of the following terms:
     one-electron contribution =       7.71843569 Ry
     hartree contribution      =       0.82190568 Ry
     xc contribution           =      -6.63578498 Ry
     ewald contribution        =     -18.83898665 Ry

     convergence has been achieved in   3 iterations

     Forces acting on atoms (cartesian axes, Ry/au):

     atom    1 type  1   force =     0.00000000    0.00000000    0.00000000
     atom    2 type  1   force =     0.00000000   -0.00000000   -0.00000000

     Total force =     0.000000     Total SCF correction =     0.000000


     Computing stress (Cartesian axis) and pressure

          total   stress  (Ry/bohr**3)                   (kbar)     P=      598.51
   0.00406858   0.00000000  -0.00000000          598.51        0.00       -0.00
   0.00000000   0.00406858   0.00000000            0.00      598.51        0.00
  -0.00000000   0.00000000   0.00406858           -0.00        0.00      598.51

     Energy error            =      4.3E-04 Ry
     Gradient error          =      8.3E-32 Ry/Bohr
     Cell gradient error     =      1.5E+00 kbar

     number of scf cycles    =   3
     number of bfgs steps    =   2

     enthalpy           old  =     -16.1528480540 Ry
     enthalpy           new  =     -16.1532828473 Ry

     CASE: enthalpy          _new < enthalpy          _old

     new trust radius        =       0.0004548721 bohr
     new conv_thr            =       0.0000000100 Ry

     new unit-cell volume =    191.42351 a.u.^3 (    28.36604 Ang^3 )
     density =      3.36720 g/cm^3

CELL_PARAMETERS (alat=  9.24870000)
  -0.494585143  -0.000000000   0.494585143
   0.000000000   0.494585143   0.494585143
  -0.494585143   0.494585143  -0.000000000

ATOMIC_POSITIONS (alat)
Si               0.0000000000        0.0000000000        0.0000000000
Si               0.2472925713        0.2472925713        0.2472925713



     Writing config-only to output data dir ./tmp/vcrelax.save/ :
     XML data file
     NEW-OLD atomic charge density approx. for the potential

     total cpu time spent up to now is       11.2 secs

     Self-consistent Calculation

     iteration #  1     ecut=    60.00 Ry     beta= 0.70
     Davidson diagonalization with overlap
     ethr =  1.00E-06,  avg # of iterations =  1.6

     Threshold (ethr) on eigenvalues was too large:
     Diagonalizing with lowered threshold

     Davidson diagonalization with overlap
     ethr =  1.14E-10,  avg # of iterations =  4.1

     total cpu time spent up to now is       12.3 secs

     End of self-consistent calculation

          k = 0.0000 0.0000 0.0000 (  1471 PWs)   bands (ev):

    -4.4557  10.2205  10.2205  10.2205  12.8360  12.8360  12.8360  17.6706

          k =-0.1685 0.1685-0.1685 (  1531 PWs)   bands (ev):

    -3.9761   7.3610   9.6086   9.6086  13.3426  13.6932  13.6932  17.2534

          k =-0.3370 0.3370-0.3370 (  1540 PWs)   bands (ev):

    -2.5919   3.5876   8.9470   8.9470  13.0561  13.6092  13.6092  18.7349

          k = 0.5055-0.5055 0.5055 (  1538 PWs)   bands (ev):

    -1.1003   1.2461   8.7272   8.7272  12.8970  13.1995  13.1995  18.1752

          k =-0.0000 0.3370-0.0000 (  1531 PWs)   bands (ev):

    -3.8149   8.3508   8.5259   8.5259  11.6717  14.6849  15.2758  15.2758

          k =-0.1685 0.5055-0.1685 (  1549 PWs)   bands (ev):

    -2.7205   5.0043   7.7484   7.8253  11.9046  14.1488  15.8825  15.9252

          k = 0.6740-0.3370 0.6740 (  1555 PWs)   bands (ev):

    -0.9768   1.9570   6.7059   7.8419  11.9011  14.9781  15.1898  17.6911

          k = 0.5055-0.1685 0.5055 (  1557 PWs)   bands (ev):

    -1.5729   2.8348   6.2362   8.5336  12.6614  14.5227  15.1082  17.9400

          k = 0.3370-0.0000 0.3370 (  1558 PWs)   bands (ev):

    -3.1889   6.0030   6.8129   9.5579  13.9020  14.0826  14.6203  15.9310

          k =-0.0000 0.6740-0.0000 (  1552 PWs)   bands (ev):

    -1.9282   4.7864   6.9268   6.9268  10.2676  11.3347  18.9341  18.9341

          k = 0.8425-0.1685 0.8425 (  1553 PWs)   bands (ev):

    -0.3228   2.7481   5.0699   6.7658  10.4862  12.6659  18.6883  19.5450

          k = 0.6740-0.0000 0.6740 (  1550 PWs)   bands (ev):

     0.0870   2.3427   3.9186   7.3771  11.1845  16.2320  17.7922  18.0803

          k = 0.0000-1.0109 0.0000 (  1588 PWs)   bands (ev):

     1.0669   1.0669   6.3693   6.3693   9.9938   9.9938  22.3268  22.3268

          k = 0.6740-0.3370 1.0109 (  1564 PWs)   bands (ev):

    -1.3682   3.8614   5.2255   6.9839  13.1048  13.5086  15.3033  18.5272

          k = 0.5055-0.1685 0.8425 (  1556 PWs)   bands (ev):

     0.1247   2.0465   4.7686   6.2541  13.2697  14.2023  16.7710  17.9652

          k =-0.3370-1.0109 0.0000 (  1558 PWs)   bands (ev):

     1.3479   1.3479   5.0047   5.0047  12.7462  12.7462  18.1104  18.1104

     the Fermi energy is    10.0201 ev

!    total energy              =     -16.93404567 Ry
     estimated scf accuracy    <          5.3E-09 Ry

     The total energy is the sum of the following terms:
     one-electron contribution =       7.72296845 Ry
     hartree contribution      =       0.82154830 Ry
     xc contribution           =      -6.63647919 Ry
     ewald contribution        =     -18.84208323 Ry

     convergence has been achieved in   1 iterations

     Forces acting on atoms (cartesian axes, Ry/au):

     atom    1 type  1   force =    -0.00000000   -0.00000000   -0.00000000
     atom    2 type  1   force =     0.00000000    0.00000000    0.00000000

     Total force =     0.000000     Total SCF correction =     0.000000


     Computing stress (Cartesian axis) and pressure

          total   stress  (Ry/bohr**3)                   (kbar)     P=      600.03
   0.00407890   0.00000000   0.00000000          600.03        0.00        0.00
   0.00000000   0.00407890  -0.00000000            0.00      600.03       -0.00
   0.00000000  -0.00000000   0.00407890            0.00       -0.00      600.03

     Energy error            =      4.8E-07 Ry
     Gradient error          =      6.6E-32 Ry/Bohr
     Cell gradient error     =      2.7E-02 kbar

     bfgs converged in   4 scf cycles and   3 bfgs steps
     (criteria: energy <  1.0E-04 Ry, force <  1.0E-03 Ry/Bohr, cell <  5.0E-01 kbar)

     End of BFGS Geometry Optimization

     Final enthalpy           =     -16.1532833280 Ry

     File ./tmp/vcrelax.bfgs deleted, as requested
Begin final coordinates
     new unit-cell volume =    191.42351 a.u.^3 (    28.36604 Ang^3 )
     density =      3.36720 g/cm^3

CELL_PARAMETERS (alat=  9.24870000)
  -0.494585143  -0.000000000   0.494585143
   0.000000000   0.494585143   0.494585143
  -0.494585143   0.494585143  -0.000000000

ATOMIC_POSITIONS (alat)
Si               0.0000000000        0.0000000000        0.0000000000
Si               0.2472925713        0.2472925713        0.2472925713
End final coordinates



     Writing config-only to output data dir ./tmp/vcrelax.save/ :
     XML data file

     Final scf calculation at the relaxed structure.
     The G-vectors are recalculated for the final unit cell
     Results may differ from those at the preceding step.

     G-vector sticks info
     --------------------
     sticks:   dense  smooth     PW     G-vecs:    dense   smooth      PW
     Sum         685     685    211                12039    12039    2085

     Using Slab Decomposition



     bravais-lattice index     =            2
     lattice parameter (alat)  =       9.2487  a.u.
     unit-cell volume          =     191.4235 (a.u.)^3
     number of atoms/cell      =            2
     number of atomic types    =            1
     number of electrons       =         8.00
     number of Kohn-Sham states=            8
     kinetic-energy cutoff     =      60.0000  Ry
     charge density cutoff     =     240.0000  Ry
     scf convergence threshold =      1.0E-08
     mixing beta               =       0.7000
     number of iterations used =            8  plain     mixing
     press convergence thresh. =      5.0E-01
     Exchange-correlation= SLA  PW   NOGX NOGC
                           (   1   4   0   0   0   0   0)

     celldm(1)=   9.248700  celldm(2)=   0.000000  celldm(3)=   0.000000
     celldm(4)=   0.000000  celldm(5)=   0.000000  celldm(6)=   0.000000

     crystal axes: (cart. coord. in units of alat)
               a(1) = (  -0.494585  -0.000000   0.494585 )  
               a(2) = (   0.000000   0.494585   0.494585 )  
               a(3) = (  -0.494585   0.494585  -0.000000 )  

     reciprocal axes: (cart. coord. in units 2 pi/alat)
               b(1) = ( -1.010948 -1.010948  1.010948 )  
               b(2) = (  1.010948  1.010948  1.010948 )  
               b(3) = ( -1.010948  1.010948 -1.010948 )  


     PseudoPot. # 1 for Si read from file:
     ./PSEUDO/Si.LDA.upf
     MD5 check sum: 9e2d726316af3d4752eea8ab0afbb951
     Pseudo is Norm-conserving + core correction, Zval =  4.0
     Generated using ONCVPSP code by D. R. Hamann
     Using radial grid of 1510 points,  6 beta functions with: 
                l(1) =   0
                l(2) =   0
                l(3) =   1
                l(4) =   1
                l(5) =   2
                l(6) =   2

     atomic species   valence    mass     pseudopotential
     Si                4.00    28.76000     Si( 1.00)

     48 Sym. Ops., with inversion, found (24 have fractional translation)



   Cartesian axes

     site n.     atom                  positions (alat units)
         1        Si     tau(   1) = (   0.0000000   0.0000000   0.0000000  )
         2        Si     tau(   2) = (   0.2472926   0.2472926   0.2472926  )

     number of k points=    16 (tetrahedron method)
                       cart. coord. in units 2pi/alat
        k(    1) = (   0.0000000   0.0000000   0.0000000), wk =   0.0092593
        k(    2) = (  -0.1684914   0.1684914  -0.1684914), wk =   0.0740741
        k(    3) = (  -0.3369828   0.3369828  -0.3369828), wk =   0.0740741
        k(    4) = (   0.5054741  -0.5054741   0.5054741), wk =   0.0370370
        k(    5) = (  -0.0000000   0.3369828  -0.0000000), wk =   0.0555556
        k(    6) = (  -0.1684914   0.5054741  -0.1684914), wk =   0.2222222
        k(    7) = (   0.6739655  -0.3369828   0.6739655), wk =   0.2222222
        k(    8) = (   0.5054741  -0.1684914   0.5054741), wk =   0.2222222
        k(    9) = (   0.3369828  -0.0000000   0.3369828), wk =   0.1111111
        k(   10) = (  -0.0000000   0.6739655  -0.0000000), wk =   0.0555556
        k(   11) = (   0.8424569  -0.1684914   0.8424569), wk =   0.2222222
        k(   12) = (   0.6739655  -0.0000000   0.6739655), wk =   0.1111111
        k(   13) = (   0.0000000  -1.0109483   0.0000000), wk =   0.0277778
        k(   14) = (   0.6739655  -0.3369828   1.0109483), wk =   0.2222222
        k(   15) = (   0.5054741  -0.1684914   0.8424569), wk =   0.2222222
        k(   16) = (  -0.3369828  -1.0109483   0.0000000), wk =   0.1111111

     Dense  grid:    12039 G-vectors     FFT dimensions: (  32,  32,  32)

     Estimated max dynamical RAM per process >      14.53 MB

     Initial potential from superposition of free atoms

     starting charge       7.9989, renormalised to       8.0000
     Starting wfcs are    8 randomized atomic wfcs

     total cpu time spent up to now is       13.5 secs

     Self-consistent Calculation

     iteration #  1     ecut=    60.00 Ry     beta= 0.70
     Davidson diagonalization with overlap
     c_bands:  1 eigenvalues not converged
     c_bands:  1 eigenvalues not converged
     c_bands:  2 eigenvalues not converged
     c_bands:  1 eigenvalues not converged
     ethr =  1.00E-06,  avg # of iterations = 15.6

     total cpu time spent up to now is       14.8 secs

     total energy              =     -16.92530131 Ry
     estimated scf accuracy    <       0.10099885 Ry

     iteration #  2     ecut=    60.00 Ry     beta= 0.70
     Davidson diagonalization with overlap
     ethr =  1.26E-03,  avg # of iterations =  1.0

     total cpu time spent up to now is       15.2 secs

     total energy              =     -16.93378432 Ry
     estimated scf accuracy    <       0.00151504 Ry

     iteration #  3     ecut=    60.00 Ry     beta= 0.70
     Davidson diagonalization with overlap
     ethr =  1.89E-05,  avg # of iterations =  2.2

     total cpu time spent up to now is       15.5 secs

     total energy              =     -16.93403656 Ry
     estimated scf accuracy    <       0.00005272 Ry

     iteration #  4     ecut=    60.00 Ry     beta= 0.70
     Davidson diagonalization with overlap
     ethr =  6.59E-07,  avg # of iterations =  2.2

     total cpu time spent up to now is       15.9 secs

     total energy              =     -16.93404485 Ry
     estimated scf accuracy    <       0.00000027 Ry

     iteration #  5     ecut=    60.00 Ry     beta= 0.70
     Davidson diagonalization with overlap
     ethr =  3.34E-09,  avg # of iterations =  3.9

     total cpu time spent up to now is       16.3 secs

     total energy              =     -16.93404544 Ry
     estimated scf accuracy    <       0.00000004 Ry

     iteration #  6     ecut=    60.00 Ry     beta= 0.70
     Davidson diagonalization with overlap
     ethr =  4.39E-10,  avg # of iterations =  1.1

     total cpu time spent up to now is       16.7 secs

     End of self-consistent calculation

          k = 0.0000 0.0000 0.0000 (  1459 PWs)   bands (ev):

    -4.4555  10.2207  10.2207  10.2207  12.8361  12.8361  12.8361  17.6708

          k =-0.1685 0.1685-0.1685 (  1489 PWs)   bands (ev):

    -3.9760   7.3612   9.6088   9.6088  13.3427  13.6933  13.6933  17.2534

          k =-0.3370 0.3370-0.3370 (  1501 PWs)   bands (ev):

    -2.5917   3.5877   8.9472   8.9472  13.0562  13.6093  13.6093  18.7301

          k = 0.5055-0.5055 0.5055 (  1502 PWs)   bands (ev):

    -1.1001   1.2462   8.7274   8.7274  12.8972  13.1996  13.1996  18.1751

          k =-0.0000 0.3370-0.0000 (  1491 PWs)   bands (ev):

    -3.8148   8.3511   8.5260   8.5260  11.6718  14.6849  15.2759  15.2759

          k =-0.1685 0.5055-0.1685 (  1498 PWs)   bands (ev):

    -2.7204   5.0044   7.7486   7.8254  11.9047  14.1489  15.8827  15.9254

          k = 0.6740-0.3370 0.6740 (  1493 PWs)   bands (ev):

    -0.9767   1.9571   6.7061   7.8421  11.9012  14.9782  15.1899  17.6913

          k = 0.5055-0.1685 0.5055 (  1509 PWs)   bands (ev):

    -1.5727   2.8350   6.2364   8.5338  12.6615  14.5228  15.1084  17.9401

          k = 0.3370-0.0000 0.3370 (  1498 PWs)   bands (ev):

    -3.1888   6.0032   6.8130   9.5581  13.9022  14.0827  14.6205  15.9311

          k =-0.0000 0.6740-0.0000 (  1503 PWs)   bands (ev):

    -1.9281   4.7866   6.9270   6.9270  10.2677  11.3347  18.9343  18.9343

          k = 0.8425-0.1685 0.8425 (  1501 PWs)   bands (ev):

    -0.3227   2.7483   5.0701   6.7660  10.4863  12.6660  18.6884  19.5452

          k = 0.6740-0.0000 0.6740 (  1516 PWs)   bands (ev):

     0.0871   2.3429   3.9186   7.3773  11.1846  16.2321  17.7923  18.0805

          k = 0.0000-1.0109 0.0000 (  1524 PWs)   bands (ev):

     1.0671   1.0671   6.3695   6.3695   9.9939   9.9939  22.3271  23.3645

          k = 0.6740-0.3370 1.0109 (  1498 PWs)   bands (ev):

    -1.3680   3.8616   5.2256   6.9840  13.1049  13.5087  15.3034  18.5273

          k = 0.5055-0.1685 0.8425 (  1512 PWs)   bands (ev):

     0.1249   2.0466   4.7687   6.2542  13.2698  14.2024  16.7712  17.9653

          k =-0.3370-1.0109 0.0000 (  1510 PWs)   bands (ev):

     1.3480   1.3480   5.0048   5.0048  12.7463  12.7463  18.1106  18.1106

     the Fermi energy is    10.0202 ev

!    total energy              =     -16.93404544 Ry
     estimated scf accuracy    <          2.8E-09 Ry

     The total energy is the sum of the following terms:
     one-electron contribution =       7.72299170 Ry
     hartree contribution      =       0.82150560 Ry
     xc contribution           =      -6.63645950 Ry
     ewald contribution        =     -18.84208324 Ry

     convergence has been achieved in   6 iterations

     Forces acting on atoms (cartesian axes, Ry/au):

     atom    1 type  1   force =     0.00000000   -0.00000000    0.00000000
     atom    2 type  1   force =    -0.00000000    0.00000000   -0.00000000

     Total force =     0.000000     Total SCF correction =     0.000000


     Computing stress (Cartesian axis) and pressure

          total   stress  (Ry/bohr**3)                   (kbar)     P=      599.97
   0.00407854  -0.00000000  -0.00000000          599.97       -0.00       -0.00
  -0.00000000   0.00407854   0.00000000           -0.00      599.97        0.00
  -0.00000000   0.00000000   0.00407854           -0.00        0.00      599.97


     Writing all to output data dir ./tmp/vcrelax.save/ :
     XML data file, charge density, pseudopotentials, collected wavefunctions

     init_run     :      1.42s CPU      1.42s WALL (       2 calls)
     electrons    :     12.33s CPU     12.46s WALL (       5 calls)
     update_pot   :      0.04s CPU      0.04s WALL (       3 calls)
     forces       :      0.52s CPU      0.53s WALL (       5 calls)
     stress       :      2.49s CPU      2.52s WALL (       5 calls)

     Called by init_run:
     wfcinit      :      0.66s CPU      0.66s WALL (       2 calls)
     potinit      :      0.07s CPU      0.07s WALL (       2 calls)
     hinit0       :      0.66s CPU      0.66s WALL (       2 calls)

     Called by electrons:
     c_bands      :     10.18s CPU     10.29s WALL (      19 calls)
     sum_band     :      2.03s CPU      2.04s WALL (      19 calls)
     v_of_rho     :      0.12s CPU      0.12s WALL (      22 calls)
     mix_rho      :      0.03s CPU      0.03s WALL (      19 calls)

     Called by c_bands:
     init_us_2    :      0.39s CPU      0.39s WALL (     800 calls)
     init_us_2:cp :      0.39s CPU      0.39s WALL (     800 calls)
     cegterg      :      9.20s CPU      9.29s WALL (     304 calls)

     Called by *egterg:
     cdiaghg      :      0.12s CPU      0.12s WALL (    1269 calls)
     h_psi        :      8.23s CPU      8.31s WALL (    1381 calls)
     g_psi        :      0.06s CPU      0.06s WALL (    1045 calls)

     Called by h_psi:
     h_psi:calbec :      0.95s CPU      0.95s WALL (    1381 calls)
     vloc_psi     :      6.43s CPU      6.50s WALL (    1381 calls)
     add_vuspsi   :      0.80s CPU      0.80s WALL (    1381 calls)

     General routines
     calbec       :      1.41s CPU      1.42s WALL (    1781 calls)
     fft          :      0.50s CPU      0.50s WALL (     106 calls)
     ffts         :      0.01s CPU      0.01s WALL (      19 calls)
     fftw         :      5.95s CPU      6.02s WALL (   18332 calls)


     PWSCF        :     16.89s CPU     17.08s WALL


   This run was terminated on:  22:10:19  15Dec2024            

=------------------------------------------------------------------------------=
   JOB DONE.
=------------------------------------------------------------------------------=
