
     Program PWSCF v.7.3 starts on 16Dec2024 at 10:36:36 

     This program is part of the open-source Quantum ESPRESSO suite
     for quantum simulation of materials; please cite
         "P. Giannozzi et al., J. Phys.:Condens. Matter 21 395502 (2009);
         "P. Giannozzi et al., J. Phys.:Condens. Matter 29 465901 (2017);
         "P. Giannozzi et al., J. Chem. Phys. 152 154105 (2020);
          URL http://www.quantum-espresso.org", 
     in publications or presentations arising from this work. More details at
     http://www.quantum-espresso.org/quote

     Serial version
     5182 MiB available memory on the printing compute node when the environment starts

     Waiting for input...
     Reading input from standard input

     Current dimensions of program PWSCF are:
     Max number of different atomic species (ntypx) = 10
     Max number of k-points (npk) =  40000
     Max angular momentum in pseudopotentials (lmaxx) =  4
     Message from routine iosys:
     BEWARE:  force calculation with tetrahedra (not recommanded)
     Message from routine iosys:
     BEWARE: stress calculation with tetrahedra (not recommanded)


     G-vector sticks info
     --------------------
     sticks:   dense  smooth     PW     G-vecs:    dense   smooth      PW
     Sum         121     121     55                  869      869     229

     Using Slab Decomposition



     bravais-lattice index     =            2
     lattice parameter (alat)  =       6.5760  a.u.
     unit-cell volume          =      71.0928 (a.u.)^3
     number of atoms/cell      =            2
     number of atomic types    =            2
     number of electrons       =         9.00
     number of Kohn-Sham states=            9
     kinetic-energy cutoff     =      20.0000  Ry
     charge density cutoff     =      80.0000  Ry
     scf convergence threshold =      1.0E-06
     mixing beta               =       0.7000
     number of iterations used =            8  plain     mixing
     Exchange-correlation= PBE
                           (   1   4   3   4   0   0   0)

     celldm(1)=   6.576000  celldm(2)=   0.000000  celldm(3)=   0.000000
     celldm(4)=   0.000000  celldm(5)=   0.000000  celldm(6)=   0.000000

     crystal axes: (cart. coord. in units of alat)
               a(1) = (  -0.500000   0.000000   0.500000 )  
               a(2) = (   0.000000   0.500000   0.500000 )  
               a(3) = (  -0.500000   0.500000   0.000000 )  

     reciprocal axes: (cart. coord. in units 2 pi/alat)
               b(1) = ( -1.000000 -1.000000  1.000000 )  
               b(2) = (  1.000000  1.000000  1.000000 )  
               b(3) = ( -1.000000  1.000000 -1.000000 )  


     PseudoPot. # 1 for Al read from file:
     ./PSEUDO/Al_ONCV_PBE_sr.upf
     MD5 check sum: 71949a6c272e6faf888e318530e21af5
     Pseudo is Norm-conserving + core correction, Zval =  3.0
     Generated using ONCVPSP code by D. R. Hamann
     Using radial grid of 1876 points,  6 beta functions with: 
                l(1) =   0
                l(2) =   0
                l(3) =   1
                l(4) =   1
                l(5) =   2
                l(6) =   2

     PseudoPot. # 2 for O  read from file:
     ./PSEUDO/O_ONCV_PBE_sr.upf
     MD5 check sum: b0122293cc47a814ad0627188f9a6d95
     Pseudo is Norm-conserving + core correction, Zval =  6.0
     Generated using ONCVPSP code by D. R. Hamann
     Using radial grid of  936 points,  5 beta functions with: 
                l(1) =   0
                l(2) =   0
                l(3) =   1
                l(4) =   1
                l(5) =   2

     atomic species   valence    mass     pseudopotential
     Al                3.00    26.98200     Al( 1.00)
     O                 6.00    15.99900     O ( 1.00)

     48 Sym. Ops., with inversion, found



   Cartesian axes

     site n.     atom                  positions (alat units)
         1        Al     tau(   1) = (   0.0000000   0.0000000   0.0000000  )
         2        O      tau(   2) = (  -0.5000000   0.5000000   0.5000000  )

     number of k points=    29 (tetrahedron method)
                       cart. coord. in units 2pi/alat
        k(    1) = (   0.0000000   0.0000000   0.0000000), wk =   0.0039062
        k(    2) = (  -0.1250000   0.1250000  -0.1250000), wk =   0.0312500
        k(    3) = (  -0.2500000   0.2500000  -0.2500000), wk =   0.0312500
        k(    4) = (  -0.3750000   0.3750000  -0.3750000), wk =   0.0312500
        k(    5) = (   0.5000000  -0.5000000   0.5000000), wk =   0.0156250
        k(    6) = (   0.0000000   0.2500000   0.0000000), wk =   0.0234375
        k(    7) = (  -0.1250000   0.3750000  -0.1250000), wk =   0.0937500
        k(    8) = (  -0.2500000   0.5000000  -0.2500000), wk =   0.0937500
        k(    9) = (   0.6250000  -0.3750000   0.6250000), wk =   0.0937500
        k(   10) = (   0.5000000  -0.2500000   0.5000000), wk =   0.0937500
        k(   11) = (   0.3750000  -0.1250000   0.3750000), wk =   0.0937500
        k(   12) = (   0.2500000   0.0000000   0.2500000), wk =   0.0468750
        k(   13) = (   0.0000000   0.5000000   0.0000000), wk =   0.0234375
        k(   14) = (  -0.1250000   0.6250000  -0.1250000), wk =   0.0937500
        k(   15) = (   0.7500000  -0.2500000   0.7500000), wk =   0.0937500
        k(   16) = (   0.6250000  -0.1250000   0.6250000), wk =   0.0937500
        k(   17) = (   0.5000000   0.0000000   0.5000000), wk =   0.0468750
        k(   18) = (   0.0000000   0.7500000   0.0000000), wk =   0.0234375
        k(   19) = (   0.8750000  -0.1250000   0.8750000), wk =   0.0937500
        k(   20) = (   0.7500000   0.0000000   0.7500000), wk =   0.0468750
        k(   21) = (   0.0000000  -1.0000000   0.0000000), wk =   0.0117188
        k(   22) = (  -0.2500000   0.5000000   0.0000000), wk =   0.0937500
        k(   23) = (   0.6250000  -0.3750000   0.8750000), wk =   0.1875000
        k(   24) = (   0.5000000  -0.2500000   0.7500000), wk =   0.0937500
        k(   25) = (   0.7500000  -0.2500000   1.0000000), wk =   0.0937500
        k(   26) = (   0.6250000  -0.1250000   0.8750000), wk =   0.1875000
        k(   27) = (   0.5000000   0.0000000   0.7500000), wk =   0.0937500
        k(   28) = (  -0.2500000  -1.0000000   0.0000000), wk =   0.0468750
        k(   29) = (  -0.5000000  -1.0000000   0.0000000), wk =   0.0234375

     Dense  grid:      869 G-vectors     FFT dimensions: (  15,  15,  15)

     Estimated max dynamical RAM per process >       2.63 MB

     Check: negative core charge=   -0.003858

     Initial potential from superposition of free atoms

     starting charge       8.9975, renormalised to       9.0000
     Starting wfcs are    8 randomized atomic wfcs +    1 random wfcs

     total cpu time spent up to now is        0.2 secs

     Self-consistent Calculation

     iteration #  1     ecut=    20.00 Ry     beta= 0.70
     Davidson diagonalization with overlap
     ethr =  1.00E-02,  avg # of iterations =  5.3

     total cpu time spent up to now is        0.3 secs

     total energy              =     -35.70914637 Ry
     estimated scf accuracy    <       0.16545223 Ry

     iteration #  2     ecut=    20.00 Ry     beta= 0.70
     Davidson diagonalization with overlap
     ethr =  1.84E-03,  avg # of iterations =  1.1

     total cpu time spent up to now is        0.4 secs

     total energy              =     -35.72704455 Ry
     estimated scf accuracy    <       0.01709557 Ry

     iteration #  3     ecut=    20.00 Ry     beta= 0.70
     Davidson diagonalization with overlap
     ethr =  1.90E-04,  avg # of iterations =  1.1

     total cpu time spent up to now is        0.5 secs

     total energy              =     -35.72907441 Ry
     estimated scf accuracy    <       0.00095226 Ry

     iteration #  4     ecut=    20.00 Ry     beta= 0.70
     Davidson diagonalization with overlap
     ethr =  1.06E-05,  avg # of iterations =  2.8

     total cpu time spent up to now is        0.6 secs

     total energy              =     -35.72909732 Ry
     estimated scf accuracy    <       0.00000520 Ry

     iteration #  5     ecut=    20.00 Ry     beta= 0.70
     Davidson diagonalization with overlap
     ethr =  5.78E-08,  avg # of iterations =  3.1

     total cpu time spent up to now is        0.7 secs

     End of self-consistent calculation

          k = 0.0000 0.0000 0.0000 (   113 PWs)   bands (ev):

    -9.1342  16.4604  16.4604  16.4604  24.2689  33.4391  33.4391  33.4392
    40.2446

          k =-0.1250 0.1250-0.1250 (   113 PWs)   bands (ev):

    -8.7897  14.4146  16.1766  16.1766  25.7783  32.0928  34.1879  34.1879
    40.4115

          k =-0.2500 0.2500-0.2500 (   107 PWs)   bands (ev):

    -7.8633  11.1921  15.6593  15.6593  26.3657  33.4349  35.3519  35.3519
    40.5481

          k =-0.3750 0.3750-0.3750 (   105 PWs)   bands (ev):

    -6.7255   8.0747  15.0806  15.0806  25.6459  35.2848  35.2848  36.7621
    43.6787

          k = 0.5000-0.5000 0.5000 (   108 PWs)   bands (ev):

    -6.1453   6.6693  14.7520  14.7520  25.3361  35.1105  35.1105  38.1761
    43.4395

          k = 0.0000 0.2500 0.0000 (   109 PWs)   bands (ev):

    -8.6776  14.6928  15.8850  15.8850  26.5528  30.5296  35.1016  35.1017
    38.6261

          k =-0.1250 0.3750-0.1250 (   108 PWs)   bands (ev):

    -7.9620  12.0948  15.1291  15.3513  27.7797  30.0698  35.8094  36.6904
    38.4622

          k =-0.2500 0.5000-0.2500 (   109 PWs)   bands (ev):

    -6.8886   9.0004  14.2635  14.5498  27.1267  32.8608  35.1657  36.6395
    41.4260

          k = 0.6250-0.3750 0.6250 (   106 PWs)   bands (ev):

    -6.0672   7.2247  13.6593  14.6048  26.8687  33.4979  36.1733  37.4380
    43.8282

          k = 0.5000-0.2500 0.5000 (   105 PWs)   bands (ev):

    -6.2537   7.6334  13.6039  14.8701  27.1344  33.6290  36.0072  37.2215
    43.1560

          k = 0.3750-0.1250 0.3750 (   106 PWs)   bands (ev):

    -7.2507  10.0927  13.9211  15.4777  27.7641  32.4260  35.9855  36.1377
    39.1699

          k = 0.2500 0.0000 0.2500 (   109 PWs)   bands (ev):

    -8.2610  12.8888  15.0203  16.0722  27.3995  30.8130  34.9713  35.9310
    38.7470

          k = 0.0000 0.5000 0.0000 (   101 PWs)   bands (ev):

    -7.4866  11.4588  14.9669  14.9669  27.0529  29.7137  35.6427  39.3726
    39.3726

          k =-0.1250 0.6250-0.1250 (   106 PWs)   bands (ev):

    -6.6597   9.4860  13.7417  14.1789  26.8274  30.5841  34.7322  39.8591
    41.9561

          k = 0.7500-0.2500 0.7500 (   108 PWs)   bands (ev):

    -5.8646   8.2142  11.8218  13.8864  27.5138  33.2223  34.0224  38.8777
    42.8469

          k = 0.6250-0.1250 0.6250 (   107 PWs)   bands (ev):

    -5.7241   8.2429  10.8359  14.2481  28.5617  33.3537  36.0876  38.2675
    41.8076

          k = 0.5000 0.0000 0.5000 (   107 PWs)   bands (ev):

    -6.3718   9.0905  11.5384  14.9844  29.5274  32.1419  35.3087  37.9997
    39.5628

          k = 0.0000 0.7500 0.0000 (   112 PWs)   bands (ev):

    -6.1449   8.5413  13.4464  13.4464  24.8438  29.1197  36.7955  42.7817
    42.7817

          k = 0.8750-0.1250 0.8750 (   108 PWs)   bands (ev):

    -5.6071   7.9750  12.4013  13.3135  25.5055  29.5086  37.3457  42.3779
    43.7882

          k = 0.7500 0.0000 0.7500 (   102 PWs)   bands (ev):

    -5.4241   8.6240  10.2776  14.1285  27.1701  32.4899  36.3368  40.8287
    41.5301

          k = 0.0000-1.0000 0.0000 (   108 PWs)   bands (ev):

    -5.4857   7.5191  13.3447  13.3447  24.1393  28.2407  38.9468  44.6805
    44.6806

          k =-0.2500 0.5000 0.0000 (   110 PWs)   bands (ev):

    -7.1761  10.3316  13.4727  14.7928  29.0138  29.7991  34.6743  38.6361
    38.9547

          k = 0.6250-0.3750 0.8750 (   108 PWs)   bands (ev):

    -6.2257   8.5844  12.2274  14.2270  28.9896  32.0373  34.2661  38.3091
    41.9494

          k = 0.5000-0.2500 0.7500 (   112 PWs)   bands (ev):

    -5.7758   7.7703  11.5851  13.7110  28.8147  32.0512  36.4265  37.6688
    42.2607

          k = 0.7500-0.2500 1.0000 (   107 PWs)   bands (ev):

    -5.9571   8.6391  12.2557  13.5066  27.3680  30.7499  34.6626  40.8475
    43.2276

          k = 0.6250-0.1250 0.8750 (   106 PWs)   bands (ev):

    -5.4901   8.6507  10.5861  13.1710  28.9163  32.8024  34.0660  38.8621
    43.6248

          k = 0.5000 0.0000 0.7500 (   109 PWs)   bands (ev):

    -5.6221   8.9949  10.0927  13.3076  30.2565  32.3934  34.1698  38.4292
    43.3368

          k =-0.2500-1.0000 0.0000 (   104 PWs)   bands (ev):

    -5.4010   8.0598  11.9274  12.9338  26.7793  29.9938  37.1549  40.6242
    45.4647

          k =-0.5000-1.0000 0.0000 (   108 PWs)   bands (ev):

    -5.3352   9.5849   9.5849  12.1370  32.1448  32.1448  32.8040  36.4155
    46.6054

     the Fermi energy is    27.8014 ev

!    total energy              =     -35.72909475 Ry
     estimated scf accuracy    <       0.00000092 Ry

     The total energy is the sum of the following terms:
     one-electron contribution =       7.03058056 Ry
     hartree contribution      =       5.77619872 Ry
     xc contribution           =     -11.19567067 Ry
     ewald contribution        =     -37.34020336 Ry

     convergence has been achieved in   5 iterations

     Forces acting on atoms (cartesian axes, Ry/au):

     atom    1 type  1   force =     0.00000000    0.00000000    0.00000000
     atom    2 type  2   force =     0.00000000    0.00000000    0.00000000

     Total force =     0.000000     Total SCF correction =     0.000000


     Computing stress (Cartesian axis) and pressure

          total   stress  (Ry/bohr**3)                   (kbar)     P=      457.58
   0.00311055   0.00000000   0.00000000          457.58        0.00        0.00
   0.00000000   0.00311055  -0.00000000            0.00      457.58       -0.00
   0.00000000  -0.00000000   0.00311055            0.00       -0.00      457.58


     Writing all to output data dir ./tmp/AlO.save/ :
     XML data file, charge density, pseudopotentials, collected wavefunctions

     init_run     :      0.16s CPU      0.16s WALL (       1 calls)
     electrons    :      0.47s CPU      0.50s WALL (       1 calls)
     forces       :      0.01s CPU      0.01s WALL (       1 calls)
     stress       :      0.05s CPU      0.05s WALL (       1 calls)

     Called by init_run:
     wfcinit      :      0.02s CPU      0.02s WALL (       1 calls)
     potinit      :      0.04s CPU      0.04s WALL (       1 calls)
     hinit0       :      0.09s CPU      0.09s WALL (       1 calls)

     Called by electrons:
     c_bands      :      0.31s CPU      0.33s WALL (       5 calls)
     sum_band     :      0.16s CPU      0.16s WALL (       5 calls)
     v_of_rho     :      0.01s CPU      0.01s WALL (       6 calls)
     mix_rho      :      0.00s CPU      0.00s WALL (       5 calls)

     Called by c_bands:
     init_us_2    :      0.01s CPU      0.01s WALL (     377 calls)
     init_us_2:cp :      0.01s CPU      0.01s WALL (     377 calls)
     cegterg      :      0.29s CPU      0.31s WALL (     145 calls)

     Called by *egterg:
     cdiaghg      :      0.05s CPU      0.05s WALL (     535 calls)
     h_psi        :      0.20s CPU      0.22s WALL (     564 calls)
     g_psi        :      0.00s CPU      0.00s WALL (     390 calls)

     Called by h_psi:
     h_psi:calbec :      0.02s CPU      0.02s WALL (     564 calls)
     vloc_psi     :      0.15s CPU      0.16s WALL (     564 calls)
     add_vuspsi   :      0.03s CPU      0.03s WALL (     564 calls)

     General routines
     calbec       :      0.03s CPU      0.03s WALL (     709 calls)
     fft          :      0.02s CPU      0.02s WALL (      84 calls)
     ffts         :      0.00s CPU      0.00s WALL (       5 calls)
     fftw         :      0.12s CPU      0.13s WALL (    8539 calls)


     PWSCF        :      0.77s CPU      0.81s WALL


   This run was terminated on:  10:36:37  16Dec2024            

=------------------------------------------------------------------------------=
   JOB DONE.
=------------------------------------------------------------------------------=
