
     Program PWSCF v.7.3 starts on 16Dec2024 at 10:36:47 

     This program is part of the open-source Quantum ESPRESSO suite
     for quantum simulation of materials; please cite
         "P. Giannozzi et al., J. Phys.:Condens. Matter 21 395502 (2009);
         "P. Giannozzi et al., J. Phys.:Condens. Matter 29 465901 (2017);
         "P. Giannozzi et al., J. Chem. Phys. 152 154105 (2020);
          URL http://www.quantum-espresso.org", 
     in publications or presentations arising from this work. More details at
     http://www.quantum-espresso.org/quote

     Serial version
     5191 MiB available memory on the printing compute node when the environment starts

     Waiting for input...
     Reading input from standard input

     Current dimensions of program PWSCF are:
     Max number of different atomic species (ntypx) = 10
     Max number of k-points (npk) =  40000
     Max angular momentum in pseudopotentials (lmaxx) =  4
     Message from routine iosys:
     BEWARE:  force calculation with tetrahedra (not recommanded)
     Message from routine iosys:
     BEWARE: stress calculation with tetrahedra (not recommanded)


     G-vector sticks info
     --------------------
     sticks:   dense  smooth     PW     G-vecs:    dense   smooth      PW
     Sum         361     361    121                 4477     4477     893

     Using Slab Decomposition



     bravais-lattice index     =            2
     lattice parameter (alat)  =       6.5760  a.u.
     unit-cell volume          =      71.0928 (a.u.)^3
     number of atoms/cell      =            2
     number of atomic types    =            2
     number of electrons       =         9.00
     number of Kohn-Sham states=            9
     kinetic-energy cutoff     =      60.0000  Ry
     charge density cutoff     =     240.0000  Ry
     scf convergence threshold =      1.0E-06
     mixing beta               =       0.7000
     number of iterations used =            8  plain     mixing
     Exchange-correlation= PBE
                           (   1   4   3   4   0   0   0)

     celldm(1)=   6.576000  celldm(2)=   0.000000  celldm(3)=   0.000000
     celldm(4)=   0.000000  celldm(5)=   0.000000  celldm(6)=   0.000000

     crystal axes: (cart. coord. in units of alat)
               a(1) = (  -0.500000   0.000000   0.500000 )  
               a(2) = (   0.000000   0.500000   0.500000 )  
               a(3) = (  -0.500000   0.500000   0.000000 )  

     reciprocal axes: (cart. coord. in units 2 pi/alat)
               b(1) = ( -1.000000 -1.000000  1.000000 )  
               b(2) = (  1.000000  1.000000  1.000000 )  
               b(3) = ( -1.000000  1.000000 -1.000000 )  


     PseudoPot. # 1 for Al read from file:
     ./PSEUDO/Al_ONCV_PBE_sr.upf
     MD5 check sum: 71949a6c272e6faf888e318530e21af5
     Pseudo is Norm-conserving + core correction, Zval =  3.0
     Generated using ONCVPSP code by D. R. Hamann
     Using radial grid of 1876 points,  6 beta functions with: 
                l(1) =   0
                l(2) =   0
                l(3) =   1
                l(4) =   1
                l(5) =   2
                l(6) =   2

     PseudoPot. # 2 for O  read from file:
     ./PSEUDO/O_ONCV_PBE_sr.upf
     MD5 check sum: b0122293cc47a814ad0627188f9a6d95
     Pseudo is Norm-conserving + core correction, Zval =  6.0
     Generated using ONCVPSP code by D. R. Hamann
     Using radial grid of  936 points,  5 beta functions with: 
                l(1) =   0
                l(2) =   0
                l(3) =   1
                l(4) =   1
                l(5) =   2

     atomic species   valence    mass     pseudopotential
     Al                3.00    26.98200     Al( 1.00)
     O                 6.00    15.99900     O ( 1.00)

     48 Sym. Ops., with inversion, found



   Cartesian axes

     site n.     atom                  positions (alat units)
         1        Al     tau(   1) = (   0.0000000   0.0000000   0.0000000  )
         2        O      tau(   2) = (  -0.5000000   0.5000000   0.5000000  )

     number of k points=    29 (tetrahedron method)
                       cart. coord. in units 2pi/alat
        k(    1) = (   0.0000000   0.0000000   0.0000000), wk =   0.0039062
        k(    2) = (  -0.1250000   0.1250000  -0.1250000), wk =   0.0312500
        k(    3) = (  -0.2500000   0.2500000  -0.2500000), wk =   0.0312500
        k(    4) = (  -0.3750000   0.3750000  -0.3750000), wk =   0.0312500
        k(    5) = (   0.5000000  -0.5000000   0.5000000), wk =   0.0156250
        k(    6) = (   0.0000000   0.2500000   0.0000000), wk =   0.0234375
        k(    7) = (  -0.1250000   0.3750000  -0.1250000), wk =   0.0937500
        k(    8) = (  -0.2500000   0.5000000  -0.2500000), wk =   0.0937500
        k(    9) = (   0.6250000  -0.3750000   0.6250000), wk =   0.0937500
        k(   10) = (   0.5000000  -0.2500000   0.5000000), wk =   0.0937500
        k(   11) = (   0.3750000  -0.1250000   0.3750000), wk =   0.0937500
        k(   12) = (   0.2500000   0.0000000   0.2500000), wk =   0.0468750
        k(   13) = (   0.0000000   0.5000000   0.0000000), wk =   0.0234375
        k(   14) = (  -0.1250000   0.6250000  -0.1250000), wk =   0.0937500
        k(   15) = (   0.7500000  -0.2500000   0.7500000), wk =   0.0937500
        k(   16) = (   0.6250000  -0.1250000   0.6250000), wk =   0.0937500
        k(   17) = (   0.5000000   0.0000000   0.5000000), wk =   0.0468750
        k(   18) = (   0.0000000   0.7500000   0.0000000), wk =   0.0234375
        k(   19) = (   0.8750000  -0.1250000   0.8750000), wk =   0.0937500
        k(   20) = (   0.7500000   0.0000000   0.7500000), wk =   0.0468750
        k(   21) = (   0.0000000  -1.0000000   0.0000000), wk =   0.0117188
        k(   22) = (  -0.2500000   0.5000000   0.0000000), wk =   0.0937500
        k(   23) = (   0.6250000  -0.3750000   0.8750000), wk =   0.1875000
        k(   24) = (   0.5000000  -0.2500000   0.7500000), wk =   0.0937500
        k(   25) = (   0.7500000  -0.2500000   1.0000000), wk =   0.0937500
        k(   26) = (   0.6250000  -0.1250000   0.8750000), wk =   0.1875000
        k(   27) = (   0.5000000   0.0000000   0.7500000), wk =   0.0937500
        k(   28) = (  -0.2500000  -1.0000000   0.0000000), wk =   0.0468750
        k(   29) = (  -0.5000000  -1.0000000   0.0000000), wk =   0.0234375

     Dense  grid:     4477 G-vectors     FFT dimensions: (  24,  24,  24)

     Estimated max dynamical RAM per process >       8.32 MB

     Check: negative core charge=   -0.000012

     Initial potential from superposition of free atoms

     starting charge       8.9975, renormalised to       9.0000
     Starting wfcs are    8 randomized atomic wfcs +    1 random wfcs

     total cpu time spent up to now is        0.9 secs

     Self-consistent Calculation

     iteration #  1     ecut=    60.00 Ry     beta= 0.70
     Davidson diagonalization with overlap
     ethr =  1.00E-02,  avg # of iterations =  5.2

     total cpu time spent up to now is        1.5 secs

     total energy              =     -37.09846468 Ry
     estimated scf accuracy    <       0.24357210 Ry

     iteration #  2     ecut=    60.00 Ry     beta= 0.70
     Davidson diagonalization with overlap
     ethr =  2.71E-03,  avg # of iterations =  2.0

     total cpu time spent up to now is        2.1 secs

     total energy              =     -37.17369579 Ry
     estimated scf accuracy    <       0.09011658 Ry

     iteration #  3     ecut=    60.00 Ry     beta= 0.70
     Davidson diagonalization with overlap
     ethr =  1.00E-03,  avg # of iterations =  1.4

     total cpu time spent up to now is        2.6 secs

     total energy              =     -37.19027030 Ry
     estimated scf accuracy    <       0.00054681 Ry

     iteration #  4     ecut=    60.00 Ry     beta= 0.70
     Davidson diagonalization with overlap
     ethr =  6.08E-06,  avg # of iterations =  5.4

     total cpu time spent up to now is        3.2 secs

     total energy              =     -37.19049851 Ry
     estimated scf accuracy    <       0.00005176 Ry

     iteration #  5     ecut=    60.00 Ry     beta= 0.70
     Davidson diagonalization with overlap
     ethr =  5.75E-07,  avg # of iterations =  1.6

     total cpu time spent up to now is        3.6 secs

     total energy              =     -37.19050770 Ry
     estimated scf accuracy    <       0.00000326 Ry

     iteration #  6     ecut=    60.00 Ry     beta= 0.70
     Davidson diagonalization with overlap
     ethr =  3.63E-08,  avg # of iterations =  2.0

     total cpu time spent up to now is        3.9 secs

     End of self-consistent calculation

          k = 0.0000 0.0000 0.0000 (   537 PWs)   bands (ev):

    -7.1139  14.7667  14.7667  14.7667  25.5152  32.8811  32.8811  32.8812
    39.3577

          k =-0.1250 0.1250-0.1250 (   552 PWs)   bands (ev):

    -6.7281  13.2948  14.5097  14.5097  26.3398  31.1492  33.5575  33.5575
    39.8169

          k =-0.2500 0.2500-0.2500 (   564 PWs)   bands (ev):

    -5.6536  10.2047  13.9401  13.9401  26.5398  31.0966  34.6345  34.6346
    39.6358

          k =-0.3750 0.3750-0.3750 (   562 PWs)   bands (ev):

    -4.2398   7.2117  13.4314  13.4314  25.7375  32.9695  34.6143  34.6143
    42.0794

          k = 0.5000-0.5000 0.5000 (   568 PWs)   bands (ev):

    -3.4582   5.8533  13.2305  13.2305  25.4230  33.8945  34.4358  34.4358
    42.0361

          k = 0.0000 0.2500 0.0000 (   556 PWs)   bands (ev):

    -6.6028  13.2897  14.2140  14.2140  26.7494  29.8874  34.2333  34.2333
    37.8692

          k =-0.1250 0.3750-0.1250 (   561 PWs)   bands (ev):

    -5.7653  11.0655  13.6303  13.6510  27.4873  29.0471  34.8399  35.5129
    37.0872

          k =-0.2500 0.5000-0.2500 (   564 PWs)   bands (ev):

    -4.4537   8.2453  12.8256  13.1711  26.7361  31.1138  33.8270  35.7213
    39.4532

          k = 0.6250-0.3750 0.6250 (   565 PWs)   bands (ev):

    -3.3733   6.3514  12.2320  13.0076  26.4497  32.3315  33.8566  35.3205
    42.0554

          k = 0.5000-0.2500 0.5000 (   567 PWs)   bands (ev):

    -3.6341   6.8005  12.0999  13.2341  26.6758  32.1627  34.0067  35.2342
    41.7314

          k = 0.3750-0.1250 0.3750 (   557 PWs)   bands (ev):

    -4.9143   9.1934  12.5165  13.7583  27.3698  30.5456  34.4622  35.4921
    38.2143

          k = 0.2500 0.0000 0.2500 (   559 PWs)   bands (ev):

    -6.1142  11.8108  13.5069  14.3026  27.3917  29.7123  34.4065  34.6994
    37.9533

          k = 0.0000 0.5000 0.0000 (   560 PWs)   bands (ev):

    -5.2156  10.4008  13.1123  13.1123  26.3701  28.8859  34.0923  37.2959
    37.2959

          k =-0.1250 0.6250-0.1250 (   558 PWs)   bands (ev):

    -4.1667   8.7148  12.1023  12.6620  25.9474  29.7845  32.8395  38.0870
    39.1578

          k = 0.7500-0.2500 0.7500 (   558 PWs)   bands (ev):

    -3.1110   7.3595  10.6570  12.5147  26.7194  31.4920  31.9175  37.5680
    40.3706

          k = 0.6250-0.1250 0.6250 (   553 PWs)   bands (ev):

    -2.9221   7.3419   9.7915  12.7394  27.8513  31.1428  32.9463  37.0302
    41.1535

          k = 0.5000 0.0000 0.5000 (   554 PWs)   bands (ev):

    -3.7969   8.3825  10.3678  13.2425  28.9686  29.8516  33.4012  36.8430
    38.9597

          k = 0.0000 0.7500 0.0000 (   568 PWs)   bands (ev):

    -3.4781   7.7632  12.2213  12.2213  24.1520  28.7910  33.5108  40.1793
    40.1794

          k = 0.8750-0.1250 0.8750 (   558 PWs)   bands (ev):

    -2.7503   7.0963  11.0678  12.0706  24.6480  28.9271  33.5905  40.1124
    40.7543

          k = 0.7500 0.0000 0.7500 (   548 PWs)   bands (ev):

    -2.5136   7.6127   9.1786  12.2715  26.3822  30.8238  32.6488  38.8079
    40.2478

          k = 0.0000-1.0000 0.0000 (   556 PWs)   bands (ev):

    -2.5631   6.5963  11.8998  11.8998  23.4039  27.9437  34.3482  41.3906
    41.3906

          k =-0.2500 0.5000 0.0000 (   551 PWs)   bands (ev):

    -4.8091   9.5996  12.1336  13.3470  27.8655  29.1163  33.6626  37.2506
    37.3489

          k = 0.6250-0.3750 0.8750 (   557 PWs)   bands (ev):

    -3.6006   7.8038  11.0067  12.7995  27.8963  30.6057  32.6605  36.7869
    40.0456

          k = 0.5000-0.2500 0.7500 (   552 PWs)   bands (ev):

    -2.9699   6.8678  10.6693  12.5537  27.9057  30.8897  33.1411  36.4260
    41.6610

          k = 0.7500-0.2500 1.0000 (   567 PWs)   bands (ev):

    -3.2444   7.8175  11.0418  12.0629  26.2068  30.0079  32.3506  38.4453
    40.5596

          k = 0.6250-0.1250 0.8750 (   555 PWs)   bands (ev):

    -2.5994   7.6898   9.5209  11.7945  27.6838  31.1623  31.5782  37.2849
    41.6624

          k = 0.5000 0.0000 0.7500 (   554 PWs)   bands (ev):

    -2.7797   8.0944   9.0489  12.1595  29.1767  30.1005  32.1653  36.9211
    42.4994

          k =-0.2500-1.0000 0.0000 (   564 PWs)   bands (ev):

    -2.4738   7.1084  10.6490  11.4717  25.6116  29.2694  33.3000  38.7781
    41.8571

          k =-0.5000-1.0000 0.0000 (   560 PWs)   bands (ev):

    -2.3815   8.5798   8.5798  11.0722  29.9635  29.9635  31.1995  36.1082
    43.8086

     the Fermi energy is    27.1511 ev

!    total energy              =     -37.19051005 Ry
     estimated scf accuracy    <       0.00000018 Ry

     The total energy is the sum of the following terms:
     one-electron contribution =       4.38466409 Ry
     hartree contribution      =       7.27213645 Ry
     xc contribution           =     -11.50710724 Ry
     ewald contribution        =     -37.34020335 Ry

     convergence has been achieved in   6 iterations

     Forces acting on atoms (cartesian axes, Ry/au):

     atom    1 type  1   force =    -0.00000000   -0.00000000    0.00000000
     atom    2 type  2   force =     0.00000000    0.00000000   -0.00000000

     Total force =     0.000000     Total SCF correction =     0.000000


     Computing stress (Cartesian axis) and pressure

          total   stress  (Ry/bohr**3)                   (kbar)     P=     3058.61
   0.02079199   0.00000000  -0.00000000         3058.61        0.00       -0.00
  -0.00000000   0.02079199  -0.00000000           -0.00     3058.61       -0.00
  -0.00000000  -0.00000000   0.02079199           -0.00       -0.00     3058.61


     Writing all to output data dir ./tmp/AlO.save/ :
     XML data file, charge density, pseudopotentials, collected wavefunctions

     init_run     :      0.54s CPU      0.55s WALL (       1 calls)
     electrons    :      2.94s CPU      3.05s WALL (       1 calls)
     forces       :      0.05s CPU      0.05s WALL (       1 calls)
     stress       :      0.43s CPU      0.43s WALL (       1 calls)

     Called by init_run:
     wfcinit      :      0.18s CPU      0.18s WALL (       1 calls)
     potinit      :      0.05s CPU      0.05s WALL (       1 calls)
     hinit0       :      0.30s CPU      0.31s WALL (       1 calls)

     Called by electrons:
     c_bands      :      2.48s CPU      2.57s WALL (       6 calls)
     sum_band     :      0.41s CPU      0.43s WALL (       6 calls)
     v_of_rho     :      0.05s CPU      0.05s WALL (       7 calls)
     mix_rho      :      0.00s CPU      0.00s WALL (       6 calls)

     Called by c_bands:
     init_us_2    :      0.09s CPU      0.09s WALL (     435 calls)
     init_us_2:cp :      0.09s CPU      0.09s WALL (     435 calls)
     cegterg      :      2.29s CPU      2.37s WALL (     174 calls)

     Called by *egterg:
     cdiaghg      :      0.09s CPU      0.09s WALL (     683 calls)
     h_psi        :      2.07s CPU      2.14s WALL (     712 calls)
     g_psi        :      0.01s CPU      0.01s WALL (     509 calls)

     Called by h_psi:
     h_psi:calbec :      0.20s CPU      0.21s WALL (     712 calls)
     vloc_psi     :      1.69s CPU      1.74s WALL (     712 calls)
     add_vuspsi   :      0.15s CPU      0.16s WALL (     712 calls)

     General routines
     calbec       :      0.24s CPU      0.24s WALL (     857 calls)
     fft          :      0.13s CPU      0.14s WALL (      94 calls)
     ffts         :      0.00s CPU      0.00s WALL (       6 calls)
     fftw         :      1.62s CPU      1.69s WALL (   10492 calls)


     PWSCF        :      4.24s CPU      4.43s WALL


   This run was terminated on:  10:36:51  16Dec2024            

=------------------------------------------------------------------------------=
   JOB DONE.
=------------------------------------------------------------------------------=
