
     Program PWSCF v.7.3 starts on 16Dec2024 at 10:35:37 

     This program is part of the open-source Quantum ESPRESSO suite
     for quantum simulation of materials; please cite
         "P. Giannozzi et al., J. Phys.:Condens. Matter 21 395502 (2009);
         "P. Giannozzi et al., J. Phys.:Condens. Matter 29 465901 (2017);
         "P. Giannozzi et al., J. Chem. Phys. 152 154105 (2020);
          URL http://www.quantum-espresso.org", 
     in publications or presentations arising from this work. More details at
     http://www.quantum-espresso.org/quote

     Serial version
     5180 MiB available memory on the printing compute node when the environment starts

     Waiting for input...
     Reading input from standard input

     Current dimensions of program PWSCF are:
     Max number of different atomic species (ntypx) = 10
     Max number of k-points (npk) =  40000
     Max angular momentum in pseudopotentials (lmaxx) =  4
     Message from routine iosys:
     BEWARE:  force calculation with tetrahedra (not recommanded)
     Message from routine iosys:
     BEWARE: stress calculation with tetrahedra (not recommanded)


     G-vector sticks info
     --------------------
     sticks:   dense  smooth     PW     G-vecs:    dense   smooth      PW
     Sum         475     475    151                 6855     6855    1243

     Using Slab Decomposition



     bravais-lattice index     =            2
     lattice parameter (alat)  =       6.5760  a.u.
     unit-cell volume          =      71.0928 (a.u.)^3
     number of atoms/cell      =            2
     number of atomic types    =            2
     number of electrons       =         9.00
     number of Kohn-Sham states=            9
     kinetic-energy cutoff     =      80.0000  Ry
     charge density cutoff     =     320.0000  Ry
     scf convergence threshold =      1.0E-06
     mixing beta               =       0.7000
     number of iterations used =            8  plain     mixing
     Exchange-correlation= PBE
                           (   1   4   3   4   0   0   0)

     celldm(1)=   6.576000  celldm(2)=   0.000000  celldm(3)=   0.000000
     celldm(4)=   0.000000  celldm(5)=   0.000000  celldm(6)=   0.000000

     crystal axes: (cart. coord. in units of alat)
               a(1) = (  -0.500000   0.000000   0.500000 )  
               a(2) = (   0.000000   0.500000   0.500000 )  
               a(3) = (  -0.500000   0.500000   0.000000 )  

     reciprocal axes: (cart. coord. in units 2 pi/alat)
               b(1) = ( -1.000000 -1.000000  1.000000 )  
               b(2) = (  1.000000  1.000000  1.000000 )  
               b(3) = ( -1.000000  1.000000 -1.000000 )  


     PseudoPot. # 1 for Al read from file:
     ./PSEUDO/Al_ONCV_PBE_sr.upf
     MD5 check sum: 71949a6c272e6faf888e318530e21af5
     Pseudo is Norm-conserving + core correction, Zval =  3.0
     Generated using ONCVPSP code by D. R. Hamann
     Using radial grid of 1876 points,  6 beta functions with: 
                l(1) =   0
                l(2) =   0
                l(3) =   1
                l(4) =   1
                l(5) =   2
                l(6) =   2

     PseudoPot. # 2 for O  read from file:
     ./PSEUDO/O_ONCV_PBE_sr.upf
     MD5 check sum: b0122293cc47a814ad0627188f9a6d95
     Pseudo is Norm-conserving + core correction, Zval =  6.0
     Generated using ONCVPSP code by D. R. Hamann
     Using radial grid of  936 points,  5 beta functions with: 
                l(1) =   0
                l(2) =   0
                l(3) =   1
                l(4) =   1
                l(5) =   2

     atomic species   valence    mass     pseudopotential
     Al                3.00    26.98200     Al( 1.00)
     O                 6.00    15.99900     O ( 1.00)

     48 Sym. Ops., with inversion, found



   Cartesian axes

     site n.     atom                  positions (alat units)
         1        Al     tau(   1) = (   0.0000000   0.0000000   0.0000000  )
         2        O      tau(   2) = (  -0.5000000   0.5000000   0.5000000  )

     number of k points=     8 (tetrahedron method)
                       cart. coord. in units 2pi/alat
        k(    1) = (   0.0000000   0.0000000   0.0000000), wk =   0.0312500
        k(    2) = (  -0.2500000   0.2500000  -0.2500000), wk =   0.2500000
        k(    3) = (   0.5000000  -0.5000000   0.5000000), wk =   0.1250000
        k(    4) = (   0.0000000   0.5000000   0.0000000), wk =   0.1875000
        k(    5) = (   0.7500000  -0.2500000   0.7500000), wk =   0.7500000
        k(    6) = (   0.5000000   0.0000000   0.5000000), wk =   0.3750000
        k(    7) = (   0.0000000  -1.0000000   0.0000000), wk =   0.0937500
        k(    8) = (  -0.5000000  -1.0000000   0.0000000), wk =   0.1875000

     Dense  grid:     6855 G-vectors     FFT dimensions: (  27,  27,  27)

     Estimated max dynamical RAM per process >       9.24 MB

     Initial potential from superposition of free atoms

     starting charge       8.9975, renormalised to       9.0000
     Starting wfcs are    8 randomized atomic wfcs +    1 random wfcs

     total cpu time spent up to now is        0.6 secs

     Self-consistent Calculation

     iteration #  1     ecut=    80.00 Ry     beta= 0.70
     Davidson diagonalization with overlap
     ethr =  1.00E-02,  avg # of iterations =  6.8

     total cpu time spent up to now is        1.2 secs

     total energy              =     -37.14708511 Ry
     estimated scf accuracy    <       0.22013371 Ry

     iteration #  2     ecut=    80.00 Ry     beta= 0.70
     Davidson diagonalization with overlap
     ethr =  2.45E-03,  avg # of iterations =  2.0

     total cpu time spent up to now is        1.3 secs

     total energy              =     -37.21397843 Ry
     estimated scf accuracy    <       0.07694865 Ry

     iteration #  3     ecut=    80.00 Ry     beta= 0.70
     Davidson diagonalization with overlap
     ethr =  8.55E-04,  avg # of iterations =  1.4

     total cpu time spent up to now is        1.6 secs

     total energy              =     -37.22843738 Ry
     estimated scf accuracy    <       0.00050461 Ry

     iteration #  4     ecut=    80.00 Ry     beta= 0.70
     Davidson diagonalization with overlap
     ethr =  5.61E-06,  avg # of iterations =  3.5

     total cpu time spent up to now is        2.0 secs

     total energy              =     -37.22868409 Ry
     estimated scf accuracy    <       0.00005187 Ry

     iteration #  5     ecut=    80.00 Ry     beta= 0.70
     Davidson diagonalization with overlap
     ethr =  5.76E-07,  avg # of iterations =  1.6

     total cpu time spent up to now is        2.2 secs

     total energy              =     -37.22868184 Ry
     estimated scf accuracy    <       0.00000326 Ry

     iteration #  6     ecut=    80.00 Ry     beta= 0.70
     Davidson diagonalization with overlap
     ethr =  3.63E-08,  avg # of iterations =  2.0

     total cpu time spent up to now is        2.4 secs

     End of self-consistent calculation

          k = 0.0000 0.0000 0.0000 (   869 PWs)   bands (ev):

    -7.1836  14.6288  14.6288  14.6288  25.4608  32.8765  32.8765  32.8765
    39.3725

          k =-0.2500 0.2500-0.2500 (   860 PWs)   bands (ev):

    -5.7295  10.1181  13.8192  13.8192  26.5063  31.0244  34.6262  34.6262
    39.6243

          k = 0.5000-0.5000 0.5000 (   862 PWs)   bands (ev):

    -3.5488   5.7964  13.1172  13.1172  25.4015  33.7704  34.4330  34.4330
    42.0383

          k = 0.0000 0.5000 0.0000 (   849 PWs)   bands (ev):

    -5.2937  10.3073  13.0009  13.0009  26.3721  28.8092  34.0752  37.2534
    37.2534

          k = 0.7500-0.2500 0.7500 (   855 PWs)   bands (ev):

    -3.2037   7.2919  10.5678  12.4077  26.6943  31.4160  31.8668  37.5380
    40.3186

          k = 0.5000 0.0000 0.5000 (   867 PWs)   bands (ev):

    -3.8840   8.3053  10.2825  13.1251  28.9207  29.7844  33.3463  36.8242
    38.9560

          k = 0.0000-1.0000 0.0000 (   846 PWs)   bands (ev):

    -2.6613   6.5334  11.7955  11.7955  23.4067  27.9364  34.2089  41.3024
    41.3024

          k =-0.5000-1.0000 0.0000 (   876 PWs)   bands (ev):

    -2.4810   8.5085   8.5085  10.9780  29.8951  29.8951  31.1545  36.0938
    43.7606

     the Fermi energy is    27.0352 ev

!    total energy              =     -37.22868004 Ry
     estimated scf accuracy    <       0.00000015 Ry

     The total energy is the sum of the following terms:
     one-electron contribution =       4.38805776 Ry
     hartree contribution      =       7.21859432 Ry
     xc contribution           =     -11.49512876 Ry
     ewald contribution        =     -37.34020334 Ry

     convergence has been achieved in   6 iterations

     Forces acting on atoms (cartesian axes, Ry/au):

     atom    1 type  1   force =    -0.00000000   -0.00000000   -0.00000000
     atom    2 type  2   force =     0.00000000   -0.00000000    0.00000000

     Total force =     0.000000     Total SCF correction =     0.000000


     Computing stress (Cartesian axis) and pressure

          total   stress  (Ry/bohr**3)                   (kbar)     P=     3092.26
   0.02102075  -0.00000000  -0.00000000         3092.26       -0.00       -0.00
  -0.00000000   0.02102075   0.00000000           -0.00     3092.26        0.00
  -0.00000000   0.00000000   0.02102075           -0.00        0.00     3092.26


     Writing all to output data dir ./tmp/AlO.save/ :
     XML data file, charge density, pseudopotentials, collected wavefunctions

     init_run     :      0.51s CPU      0.53s WALL (       1 calls)
     electrons    :      1.74s CPU      1.77s WALL (       1 calls)
     forces       :      0.03s CPU      0.03s WALL (       1 calls)
     stress       :      0.11s CPU      0.11s WALL (       1 calls)

     Called by init_run:
     wfcinit      :      0.09s CPU      0.09s WALL (       1 calls)
     potinit      :      0.09s CPU      0.10s WALL (       1 calls)
     hinit0       :      0.32s CPU      0.33s WALL (       1 calls)

     Called by electrons:
     c_bands      :      1.40s CPU      1.40s WALL (       6 calls)
     sum_band     :      0.22s CPU      0.24s WALL (       6 calls)
     v_of_rho     :      0.11s CPU      0.13s WALL (       7 calls)
     mix_rho      :      0.01s CPU      0.01s WALL (       6 calls)

     Called by c_bands:
     init_us_2    :      0.04s CPU      0.05s WALL (     120 calls)
     init_us_2:cp :      0.04s CPU      0.05s WALL (     120 calls)
     cegterg      :      1.31s CPU      1.31s WALL (      48 calls)

     Called by *egterg:
     cdiaghg      :      0.03s CPU      0.03s WALL (     186 calls)
     h_psi        :      1.14s CPU      1.14s WALL (     194 calls)
     g_psi        :      0.00s CPU      0.00s WALL (     138 calls)

     Called by h_psi:
     h_psi:calbec :      0.11s CPU      0.11s WALL (     194 calls)
     vloc_psi     :      0.95s CPU      0.95s WALL (     194 calls)
     add_vuspsi   :      0.08s CPU      0.08s WALL (     194 calls)

     General routines
     calbec       :      0.13s CPU      0.13s WALL (     234 calls)
     fft          :      0.17s CPU      0.18s WALL (      94 calls)
     ffts         :      0.00s CPU      0.00s WALL (       6 calls)
     fftw         :      1.01s CPU      1.03s WALL (    2872 calls)


     PWSCF        :      2.46s CPU      2.52s WALL


   This run was terminated on:  10:35:40  16Dec2024            

=------------------------------------------------------------------------------=
   JOB DONE.
=------------------------------------------------------------------------------=
