
     Program PWSCF v.7.3 starts on 16Dec2024 at 10:35:57 

     This program is part of the open-source Quantum ESPRESSO suite
     for quantum simulation of materials; please cite
         "P. Giannozzi et al., J. Phys.:Condens. Matter 21 395502 (2009);
         "P. Giannozzi et al., J. Phys.:Condens. Matter 29 465901 (2017);
         "P. Giannozzi et al., J. Chem. Phys. 152 154105 (2020);
          URL http://www.quantum-espresso.org", 
     in publications or presentations arising from this work. More details at
     http://www.quantum-espresso.org/quote

     Serial version
     5180 MiB available memory on the printing compute node when the environment starts

     Waiting for input...
     Reading input from standard input

     Current dimensions of program PWSCF are:
     Max number of different atomic species (ntypx) = 10
     Max number of k-points (npk) =  40000
     Max angular momentum in pseudopotentials (lmaxx) =  4
     Message from routine iosys:
     BEWARE:  force calculation with tetrahedra (not recommanded)
     Message from routine iosys:
     BEWARE: stress calculation with tetrahedra (not recommanded)


     G-vector sticks info
     --------------------
     sticks:   dense  smooth     PW     G-vecs:    dense   smooth      PW
     Sum         475     475    151                 6855     6855    1243

     Using Slab Decomposition



     bravais-lattice index     =            2
     lattice parameter (alat)  =       6.5760  a.u.
     unit-cell volume          =      71.0928 (a.u.)^3
     number of atoms/cell      =            2
     number of atomic types    =            2
     number of electrons       =         9.00
     number of Kohn-Sham states=            9
     kinetic-energy cutoff     =      80.0000  Ry
     charge density cutoff     =     320.0000  Ry
     scf convergence threshold =      1.0E-06
     mixing beta               =       0.7000
     number of iterations used =            8  plain     mixing
     Exchange-correlation= PBE
                           (   1   4   3   4   0   0   0)

     celldm(1)=   6.576000  celldm(2)=   0.000000  celldm(3)=   0.000000
     celldm(4)=   0.000000  celldm(5)=   0.000000  celldm(6)=   0.000000

     crystal axes: (cart. coord. in units of alat)
               a(1) = (  -0.500000   0.000000   0.500000 )  
               a(2) = (   0.000000   0.500000   0.500000 )  
               a(3) = (  -0.500000   0.500000   0.000000 )  

     reciprocal axes: (cart. coord. in units 2 pi/alat)
               b(1) = ( -1.000000 -1.000000  1.000000 )  
               b(2) = (  1.000000  1.000000  1.000000 )  
               b(3) = ( -1.000000  1.000000 -1.000000 )  


     PseudoPot. # 1 for Al read from file:
     ./PSEUDO/Al_ONCV_PBE_sr.upf
     MD5 check sum: 71949a6c272e6faf888e318530e21af5
     Pseudo is Norm-conserving + core correction, Zval =  3.0
     Generated using ONCVPSP code by D. R. Hamann
     Using radial grid of 1876 points,  6 beta functions with: 
                l(1) =   0
                l(2) =   0
                l(3) =   1
                l(4) =   1
                l(5) =   2
                l(6) =   2

     PseudoPot. # 2 for O  read from file:
     ./PSEUDO/O_ONCV_PBE_sr.upf
     MD5 check sum: b0122293cc47a814ad0627188f9a6d95
     Pseudo is Norm-conserving + core correction, Zval =  6.0
     Generated using ONCVPSP code by D. R. Hamann
     Using radial grid of  936 points,  5 beta functions with: 
                l(1) =   0
                l(2) =   0
                l(3) =   1
                l(4) =   1
                l(5) =   2

     atomic species   valence    mass     pseudopotential
     Al                3.00    26.98200     Al( 1.00)
     O                 6.00    15.99900     O ( 1.00)

     48 Sym. Ops., with inversion, found



   Cartesian axes

     site n.     atom                  positions (alat units)
         1        Al     tau(   1) = (   0.0000000   0.0000000   0.0000000  )
         2        O      tau(   2) = (  -0.5000000   0.5000000   0.5000000  )

     number of k points=    72 (tetrahedron method)
                       cart. coord. in units 2pi/alat
        k(    1) = (   0.0000000   0.0000000   0.0000000), wk =   0.0011574
        k(    2) = (  -0.0833333   0.0833333  -0.0833333), wk =   0.0092593
        k(    3) = (  -0.1666667   0.1666667  -0.1666667), wk =   0.0092593
        k(    4) = (  -0.2500000   0.2500000  -0.2500000), wk =   0.0092593
        k(    5) = (  -0.3333333   0.3333333  -0.3333333), wk =   0.0092593
        k(    6) = (  -0.4166667   0.4166667  -0.4166667), wk =   0.0092593
        k(    7) = (   0.5000000  -0.5000000   0.5000000), wk =   0.0046296
        k(    8) = (   0.0000000   0.1666667   0.0000000), wk =   0.0069444
        k(    9) = (  -0.0833333   0.2500000  -0.0833333), wk =   0.0277778
        k(   10) = (  -0.1666667   0.3333333  -0.1666667), wk =   0.0277778
        k(   11) = (  -0.2500000   0.4166667  -0.2500000), wk =   0.0277778
        k(   12) = (  -0.3333333   0.5000000  -0.3333333), wk =   0.0277778
        k(   13) = (   0.5833333  -0.4166667   0.5833333), wk =   0.0277778
        k(   14) = (   0.5000000  -0.3333333   0.5000000), wk =   0.0277778
        k(   15) = (   0.4166667  -0.2500000   0.4166667), wk =   0.0277778
        k(   16) = (   0.3333333  -0.1666667   0.3333333), wk =   0.0277778
        k(   17) = (   0.2500000  -0.0833333   0.2500000), wk =   0.0277778
        k(   18) = (   0.1666667  -0.0000000   0.1666667), wk =   0.0138889
        k(   19) = (   0.0000000   0.3333333   0.0000000), wk =   0.0069444
        k(   20) = (  -0.0833333   0.4166667  -0.0833333), wk =   0.0277778
        k(   21) = (  -0.1666667   0.5000000  -0.1666667), wk =   0.0277778
        k(   22) = (  -0.2500000   0.5833333  -0.2500000), wk =   0.0277778
        k(   23) = (   0.6666667  -0.3333333   0.6666667), wk =   0.0277778
        k(   24) = (   0.5833333  -0.2500000   0.5833333), wk =   0.0277778
        k(   25) = (   0.5000000  -0.1666667   0.5000000), wk =   0.0277778
        k(   26) = (   0.4166667  -0.0833333   0.4166667), wk =   0.0277778
        k(   27) = (   0.3333333   0.0000000   0.3333333), wk =   0.0138889
        k(   28) = (   0.0000000   0.5000000   0.0000000), wk =   0.0069444
        k(   29) = (  -0.0833333   0.5833333  -0.0833333), wk =   0.0277778
        k(   30) = (  -0.1666667   0.6666667  -0.1666667), wk =   0.0277778
        k(   31) = (   0.7500000  -0.2500000   0.7500000), wk =   0.0277778
        k(   32) = (   0.6666667  -0.1666667   0.6666667), wk =   0.0277778
        k(   33) = (   0.5833333  -0.0833333   0.5833333), wk =   0.0277778
        k(   34) = (   0.5000000   0.0000000   0.5000000), wk =   0.0138889
        k(   35) = (   0.0000000   0.6666667   0.0000000), wk =   0.0069444
        k(   36) = (  -0.0833333   0.7500000  -0.0833333), wk =   0.0277778
        k(   37) = (   0.8333333  -0.1666667   0.8333333), wk =   0.0277778
        k(   38) = (   0.7500000  -0.0833333   0.7500000), wk =   0.0277778
        k(   39) = (   0.6666667   0.0000000   0.6666667), wk =   0.0138889
        k(   40) = (   0.0000000   0.8333333   0.0000000), wk =   0.0069444
        k(   41) = (   0.9166667  -0.0833333   0.9166667), wk =   0.0277778
        k(   42) = (   0.8333333   0.0000000   0.8333333), wk =   0.0138889
        k(   43) = (   0.0000000  -1.0000000   0.0000000), wk =   0.0034722
        k(   44) = (  -0.1666667   0.3333333   0.0000000), wk =   0.0277778
        k(   45) = (  -0.2500000   0.4166667  -0.0833333), wk =   0.0555556
        k(   46) = (  -0.3333333   0.5000000  -0.1666667), wk =   0.0555556
        k(   47) = (   0.5833333  -0.4166667   0.7500000), wk =   0.0555556
        k(   48) = (   0.5000000  -0.3333333   0.6666667), wk =   0.0277778
        k(   49) = (  -0.1666667   0.5000000   0.0000000), wk =   0.0277778
        k(   50) = (  -0.2500000   0.5833333  -0.0833333), wk =   0.0555556
        k(   51) = (   0.6666667  -0.3333333   0.8333333), wk =   0.0555556
        k(   52) = (   0.5833333  -0.2500000   0.7500000), wk =   0.0555556
        k(   53) = (   0.5000000  -0.1666667   0.6666667), wk =   0.0555556
        k(   54) = (   0.4166667  -0.0833333   0.5833333), wk =   0.0555556
        k(   55) = (   0.3333333   0.0000000   0.5000000), wk =   0.0277778
        k(   56) = (  -0.1666667   0.6666667  -0.0000000), wk =   0.0277778
        k(   57) = (   0.7500000  -0.2500000   0.9166667), wk =   0.0555556
        k(   58) = (   0.6666667  -0.1666667   0.8333333), wk =   0.0555556
        k(   59) = (   0.5833333  -0.0833333   0.7500000), wk =   0.0555556
        k(   60) = (   0.5000000   0.0000000   0.6666667), wk =   0.0277778
        k(   61) = (   0.8333333  -0.1666667   1.0000000), wk =   0.0277778
        k(   62) = (   0.7500000  -0.0833333   0.9166667), wk =   0.0555556
        k(   63) = (   0.6666667   0.0000000   0.8333333), wk =   0.0277778
        k(   64) = (  -0.1666667  -1.0000000   0.0000000), wk =   0.0138889
        k(   65) = (   0.6666667  -0.3333333   1.0000000), wk =   0.0277778
        k(   66) = (   0.5833333  -0.2500000   0.9166667), wk =   0.0555556
        k(   67) = (   0.5000000  -0.1666667   0.8333333), wk =   0.0277778
        k(   68) = (   0.6666667  -0.1666667   1.0000000), wk =   0.0277778
        k(   69) = (   0.5833333  -0.0833333   0.9166667), wk =   0.0555556
        k(   70) = (   0.5000000   0.0000000   0.8333333), wk =   0.0277778
        k(   71) = (  -0.3333333  -1.0000000   0.0000000), wk =   0.0138889
        k(   72) = (  -0.5000000  -1.0000000   0.0000000), wk =   0.0069444

     Dense  grid:     6855 G-vectors     FFT dimensions: (  27,  27,  27)

     Estimated max dynamical RAM per process >      16.79 MB

     Initial potential from superposition of free atoms

     starting charge       8.9975, renormalised to       9.0000
     Starting wfcs are    8 randomized atomic wfcs +    1 random wfcs

     total cpu time spent up to now is        1.3 secs

     Self-consistent Calculation

     iteration #  1     ecut=    80.00 Ry     beta= 0.70
     Davidson diagonalization with overlap
     ethr =  1.00E-02,  avg # of iterations =  5.7

     total cpu time spent up to now is        3.6 secs

     total energy              =     -37.10391218 Ry
     estimated scf accuracy    <       0.24826841 Ry

     iteration #  2     ecut=    80.00 Ry     beta= 0.70
     Davidson diagonalization with overlap
     ethr =  2.76E-03,  avg # of iterations =  2.0

     total cpu time spent up to now is        5.0 secs

     total energy              =     -37.17990838 Ry
     estimated scf accuracy    <       0.09355290 Ry

     iteration #  3     ecut=    80.00 Ry     beta= 0.70
     Davidson diagonalization with overlap
     ethr =  1.04E-03,  avg # of iterations =  1.4

     total cpu time spent up to now is        6.1 secs

     total energy              =     -37.19764842 Ry
     estimated scf accuracy    <       0.00053626 Ry

     iteration #  4     ecut=    80.00 Ry     beta= 0.70
     Davidson diagonalization with overlap
     c_bands:  1 eigenvalues not converged
     ethr =  5.96E-06,  avg # of iterations =  5.1

     total cpu time spent up to now is        8.0 secs

     total energy              =     -37.19789613 Ry
     estimated scf accuracy    <       0.00005009 Ry

     iteration #  5     ecut=    80.00 Ry     beta= 0.70
     Davidson diagonalization with overlap
     ethr =  5.57E-07,  avg # of iterations =  1.7

     total cpu time spent up to now is        9.4 secs

     total energy              =     -37.19790031 Ry
     estimated scf accuracy    <       0.00000334 Ry

     iteration #  6     ecut=    80.00 Ry     beta= 0.70
     Davidson diagonalization with overlap
     ethr =  3.71E-08,  avg # of iterations =  2.1

     total cpu time spent up to now is       10.8 secs

     End of self-consistent calculation

          k = 0.0000 0.0000 0.0000 (   869 PWs)   bands (ev):

    -7.0999  14.7588  14.7588  14.7588  25.5287  32.8764  32.8764  32.8764
    39.3533

          k =-0.0833 0.0833-0.0833 (   881 PWs)   bands (ev):

    -6.9268  14.0678  14.6412  14.6412  25.9573  31.8456  33.1941  33.1942
    40.2221

          k =-0.1667 0.1667-0.1667 (   881 PWs)   bands (ev):

    -6.4223  12.3520  14.3335  14.3335  26.6551  30.7079  33.9722  33.9722
    39.4939

          k =-0.2500 0.2500-0.2500 (   860 PWs)   bands (ev):

    -5.6383  10.2101  13.9414  13.9414  26.5442  31.0818  34.6291  34.6291
    39.6279

          k =-0.3333 0.3333-0.3333 (   854 PWs)   bands (ev):

    -4.6900   8.1134  13.5763  13.5763  25.9789  32.3315  34.6962  34.6963
    41.0653

          k =-0.4167 0.4167-0.4167 (   859 PWs)   bands (ev):

    -3.8195   6.4940  13.3236  13.3236  25.5667  33.4317  34.5185  34.5185
    42.2675

          k = 0.5000-0.5000 0.5000 (   862 PWs)   bands (ev):

    -3.4392   5.8551  13.2339  13.2339  25.4265  33.8611  34.4311  34.4311
    42.0277

          k = 0.0000 0.1667 0.0000 (   881 PWs)   bands (ev):

    -6.8697  14.0557  14.5002  14.5002  26.1240  31.2015  33.5010  33.5010
    39.1935

          k =-0.0833 0.2500-0.0833 (   877 PWs)   bands (ev):

    -6.4775  12.7943  14.1814  14.2510  26.8574  29.9848  34.1749  34.2887
    38.0497

          k =-0.1667 0.3333-0.1667 (   869 PWs)   bands (ev):

    -5.7883  10.8765  13.7920  13.8515  27.0920  29.9471  34.6569  35.0469
    37.8198

          k =-0.2500 0.4167-0.2500 (   858 PWs)   bands (ev):

    -4.8922   8.8236  13.3909  13.4392  26.5720  31.2077  34.4127  35.2441
    39.1313

          k =-0.3333 0.5000-0.3333 (   852 PWs)   bands (ev):

    -3.9785   7.0651  12.9957  13.2032  26.1324  32.4785  34.1132  35.0425
    41.1556

          k = 0.5833-0.4167 0.5833 (   859 PWs)   bands (ev):

    -3.4019   6.0836  12.7497  13.1306  25.9461  33.0209  34.1920  34.8326
    42.8905

          k = 0.5000-0.3333 0.5000 (   863 PWs)   bands (ev):

    -3.5291   6.2964  12.6960  13.2358  26.0157  32.9492  34.2436  34.7904
    42.8738

          k = 0.4167-0.2500 0.4167 (   861 PWs)   bands (ev):

    -4.2669   7.5998  12.8451  13.5005  26.3383  32.1690  34.3878  34.9270
    40.4911

          k = 0.3333-0.1667 0.3333 (   869 PWs)   bands (ev):

    -5.2049   9.5056  13.1792  13.8713  26.8711  30.8568  34.7068  35.0065
    38.5699

          k = 0.2500-0.0833 0.2500 (   865 PWs)   bands (ev):

    -6.0467  11.5394  13.6536  14.2590  27.1827  30.0035  34.4172  34.6649
    38.1502

          k = 0.1667-0.0000 0.1667 (   879 PWs)   bands (ev):

    -6.6437  13.2145  14.2039  14.5494  26.5498  30.7148  33.5545  33.9761
    38.9926

          k = 0.0000 0.3333 0.0000 (   869 PWs)   bands (ev):

    -6.2066  12.3835  13.8621  13.8621  27.4922  28.5955  35.1473  35.1473
    36.4854

          k =-0.0833 0.4167-0.0833 (   861 PWs)   bands (ev):

    -5.6368  11.0712  13.4197  13.4816  27.5667  28.4436  34.8473  36.0714
    36.6978

          k =-0.1667 0.5000-0.1667 (   857 PWs)   bands (ev):

    -4.8390   9.4055  12.7918  13.1429  27.0479  29.7023  33.7460  36.4566
    38.2653

          k =-0.2500 0.5833-0.2500 (   860 PWs)   bands (ev):

    -3.9618   7.7982  12.1456  12.9214  26.8484  31.1052  33.0574  36.2748
    39.8663

          k = 0.6667-0.3333 0.6667 (   850 PWs)   bands (ev):

    -3.2860   6.6942  11.6453  12.8606  26.8864  31.7518  33.2607  35.9525
    41.2196

          k = 0.5833-0.2500 0.5833 (   853 PWs)   bands (ev):

    -3.1729   6.5435  11.3787  12.9729  27.1094  31.6852  33.6821  35.7619
    42.2945

          k = 0.5000-0.1667 0.5000 (   858 PWs)   bands (ev):

    -3.6987   7.4271  11.3980  13.2397  27.4864  31.2895  33.6983  35.8123
    40.5201

          k = 0.4167-0.0833 0.4167 (   858 PWs)   bands (ev):

    -4.5462   8.9186  11.7633  13.6068  28.0070  30.1669  34.0728  36.0927
    38.0176

          k = 0.3333 0.0000 0.3333 (   857 PWs)   bands (ev):

    -5.3907  10.4191  12.5688  13.9844  28.1991  29.2481  34.6544  35.5857
    37.2069

          k = 0.0000 0.5000 0.0000 (   849 PWs)   bands (ev):

    -5.1997  10.4051  13.1134  13.1134  26.3653  28.8828  34.0838  37.2814
    37.2814

          k =-0.0833 0.5833-0.0833 (   856 PWs)   bands (ev):

    -4.5340   9.2952  12.5392  12.7865  25.8742  29.4254  33.2051  38.0149
    38.5171

          k =-0.1667 0.6667-0.1667 (   859 PWs)   bands (ev):

    -3.7591   8.1796  11.6082  12.5738  26.1353  30.2445  32.4855  37.9689
    39.6687

          k = 0.7500-0.2500 0.7500 (   855 PWs)   bands (ev):

    -3.0914   7.3607  10.6562  12.5165  26.7129  31.4744  31.9015  37.5559
    40.3503

          k = 0.6667-0.1667 0.6667 (   858 PWs)   bands (ev):

    -2.8243   7.1595   9.9711  12.6267  27.4370  31.3938  32.6095  37.1577
    40.7820

          k = 0.5833-0.0833 0.5833 (   858 PWs)   bands (ev):

    -3.1099   7.6683   9.7599  12.8858  28.2700  30.7712  33.0694  36.9301
    41.4841

          k = 0.5000 0.0000 0.5000 (   867 PWs)   bands (ev):

    -3.7789   8.3856  10.3657  13.2416  28.9644  29.8315  33.3843  36.8317
    38.9550

          k = 0.0000 0.6667 0.0000 (   866 PWs)   bands (ev):

    -4.0224   8.5484  12.4675  12.4675  24.7264  29.1773  33.2198  39.3215
    39.3215

          k =-0.0833 0.7500-0.0833 (   853 PWs)   bands (ev):

    -3.4039   7.7737  11.8501  12.2575  24.6330  29.0943  33.2413  39.7026
    40.1476

          k = 0.8333-0.1667 0.8333 (   853 PWs)   bands (ev):

    -2.8477   7.3510  10.6896  12.1971  25.3793  29.6642  33.0085  39.2972
    40.4598

          k = 0.7500-0.0833 0.7500 (   854 PWs)   bands (ev):

    -2.5631   7.5192   9.4095  12.2985  26.4233  30.8970  32.4870  38.6169
    40.2752

          k = 0.6667 0.0000 0.6667 (   866 PWs)   bands (ev):

    -2.6725   8.3416   8.3707  12.5444  27.5303  31.6096  32.2126  37.8558
    40.4709

          k = 0.0000 0.8333 0.0000 (   854 PWs)   bands (ev):

    -2.9830   7.1458  12.0446  12.0446  23.7321  28.3579  33.8785  40.7995
    40.7995

          k = 0.9167-0.0833 0.9167 (   852 PWs)   bands (ev):

    -2.6310   6.8395  11.4769  11.9767  24.0011  28.3803  33.9648  40.7459
    41.0265

          k = 0.8333 0.0000 0.8333 (   846 PWs)   bands (ev):

    -2.4783   7.0513  10.3395  12.0665  25.1044  29.2842  33.4828  39.8780
    40.6378

          k = 0.0000-1.0000 0.0000 (   846 PWs)   bands (ev):

    -2.5418   6.5956  11.8986  11.8986  23.3992  27.9426  34.3012  41.3512
    41.3512

          k =-0.1667 0.3333 0.0000 (   871 PWs)   bands (ev):

    -5.9944  11.6940  13.4790  14.0587  27.6608  28.9611  34.8981  35.0231
    37.1239

          k =-0.2500 0.4167-0.0833 (   863 PWs)   bands (ev):

    -5.2483  10.0735  12.7719  13.7169  27.6902  29.4194  34.4397  35.8802
    37.4818

          k =-0.3333 0.5000-0.1667 (   862 PWs)   bands (ev):

    -4.3556   8.3068  12.2590  13.3358  27.1764  30.8563  33.7636  35.8636
    39.1815

          k = 0.5833-0.4167 0.7500 (   856 PWs)   bands (ev):

    -3.5503   6.8857  11.9545  13.0500  26.8737  31.8163  33.6194  35.5992
    41.2391

          k = 0.5000-0.3333 0.6667 (   860 PWs)   bands (ev):

    -3.2045   6.3210  11.8539  12.9450  26.7786  31.9852  33.8244  35.4780
    42.5292

          k =-0.1667 0.5000 0.0000 (   858 PWs)   bands (ev):

    -5.0147  10.0050  12.6366  13.2484  27.0972  29.0215  33.8167  37.2698
    37.3233

          k =-0.2500 0.5833-0.0833 (   857 PWs)   bands (ev):

    -4.2219   8.7508  11.8068  12.8980  27.1204  29.9552  32.8243  37.3100
    38.8346

          k = 0.6667-0.3333 0.8333 (   859 PWs)   bands (ev):

    -3.4407   7.5857  11.1124  12.6312  27.3444  31.0246  32.2951  36.9420
    40.2645

          k = 0.5833-0.2500 0.7500 (   852 PWs)   bands (ev):

    -2.9693   6.9341  10.6540  12.5628  27.6684  31.0767  32.8751  36.5833
    41.2423

          k = 0.5000-0.1667 0.6667 (   857 PWs)   bands (ev):

    -3.0753   7.1363  10.4987  12.7059  28.0471  30.8101  33.0872  36.5006
    41.5170

          k = 0.4167-0.0833 0.5833 (   859 PWs)   bands (ev):

    -3.6894   8.0601  10.7447  13.0150  28.4252  30.1973  33.0028  36.7233
    39.6260

          k = 0.3333 0.0000 0.5000 (   853 PWs)   bands (ev):

    -4.4998   9.1591  11.5456  13.3978  28.6691  29.1256  33.5823  37.0330
    37.5756

          k =-0.1667 0.6667-0.0000 (   853 PWs)   bands (ev):

    -3.8832   8.4432  11.9144  12.4525  25.6506  29.6527  32.7510  38.6501
    39.4376

          k = 0.7500-0.2500 0.9167 (   859 PWs)   bands (ev):

    -3.2075   7.7631  10.9385  12.1784  26.2387  30.2068  32.2878  38.3391
    40.4388

          k = 0.6667-0.1667 0.8333 (   855 PWs)   bands (ev):

    -2.7309   7.4927   9.8820  12.1298  27.1082  31.2338  31.7882  37.6893
    40.9255

          k = 0.5833-0.0833 0.7500 (   856 PWs)   bands (ev):

    -2.6715   7.7654   9.1383  12.2955  28.0504  31.0688  32.2515  37.1805
    41.2786

          k = 0.5000 0.0000 0.6667 (   862 PWs)   bands (ev):

    -3.0535   8.0471   9.4022  12.6219  28.9800  30.1130  32.6055  37.0660
    41.2499

          k = 0.8333-0.1667 1.0000 (   859 PWs)   bands (ev):

    -2.9042   7.2766  11.4425  11.8875  24.7558  28.9651  33.3842  39.6452
    40.9833

          k = 0.7500-0.0833 0.9167 (   857 PWs)   bands (ev):

    -2.5469   7.2326  10.3877  11.7827  25.7322  29.5778  33.0550  38.7825
    41.3776

          k = 0.6667 0.0000 0.8333 (   855 PWs)   bands (ev):

    -2.4647   7.7209   9.1729  11.9559  26.9478  30.8793  32.2492  37.8129
    41.2520

          k =-0.1667-1.0000 0.0000 (   846 PWs)   bands (ev):

    -2.4974   6.8244  11.2797  11.6835  24.4543  28.5669  33.8514  39.9863
    41.5528

          k = 0.6667-0.3333 1.0000 (   857 PWs)   bands (ev):

    -3.5144   8.1918  10.6884  12.4994  27.8250  30.3051  31.9669  37.5346
    39.9336

          k = 0.5833-0.2500 0.9167 (   857 PWs)   bands (ev):

    -2.9141   7.7463   9.8739  12.1387  28.5665  30.4362  31.8597  37.0764
    41.3425

          k = 0.5000-0.1667 0.8333 (   852 PWs)   bands (ev):

    -2.6705   7.5519   9.5927  11.9984  28.9112  30.1884  32.2763  36.7261
    41.9040

          k = 0.6667-0.1667 1.0000 (   868 PWs)   bands (ev):

    -2.7172   7.6520  10.1356  11.6414  27.2070  30.4678  31.8433  37.6858
    41.6420

          k = 0.5833-0.0833 0.9167 (   864 PWs)   bands (ev):

    -2.4603   7.9555   9.1933  11.4455  28.3973  31.0211  31.2728  36.7326
    42.4457

          k = 0.5000 0.0000 0.8333 (   861 PWs)   bands (ev):

    -2.5395   8.2653   8.7893  11.6648  29.4603  30.0158  31.7152  36.5657
    43.0170

          k =-0.3333-1.0000 0.0000 (   858 PWs)   bands (ev):

    -2.4064   7.5002   9.9460  11.2706  26.9875  30.0903  32.4071  37.5339
    42.2553

          k =-0.5000-1.0000 0.0000 (   876 PWs)   bands (ev):

    -2.3599   8.5804   8.5804  11.0717  29.9454  29.9454  31.1851  36.1076
    43.7848

     the Fermi energy is    27.1380 ev

!    total energy              =     -37.19790094 Ry
     estimated scf accuracy    <       0.00000019 Ry

     The total energy is the sum of the following terms:
     one-electron contribution =       4.37107137 Ry
     hartree contribution      =       7.28185054 Ry
     xc contribution           =     -11.51061950 Ry
     ewald contribution        =     -37.34020334 Ry

     convergence has been achieved in   6 iterations

     Forces acting on atoms (cartesian axes, Ry/au):

     atom    1 type  1   force =     0.00000000    0.00000000    0.00000000
     atom    2 type  2   force =     0.00000000    0.00000000    0.00000000

     Total force =     0.000000     Total SCF correction =     0.000000


     Computing stress (Cartesian axis) and pressure

          total   stress  (Ry/bohr**3)                   (kbar)     P=     3183.71
   0.02164242  -0.00000000   0.00000000         3183.71       -0.00        0.00
  -0.00000000   0.02164242   0.00000000           -0.00     3183.71        0.00
   0.00000000  -0.00000000   0.02164242            0.00       -0.00     3183.71


     Writing all to output data dir ./tmp/AlO.save/ :
     XML data file, charge density, pseudopotentials, collected wavefunctions

     init_run     :      0.99s CPU      1.00s WALL (       1 calls)
     electrons    :      9.35s CPU      9.53s WALL (       1 calls)
     forces       :      0.23s CPU      0.23s WALL (       1 calls)
     stress       :      1.02s CPU      1.04s WALL (       1 calls)

     Called by init_run:
     wfcinit      :      0.42s CPU      0.42s WALL (       1 calls)
     potinit      :      0.08s CPU      0.08s WALL (       1 calls)
     hinit0       :      0.46s CPU      0.47s WALL (       1 calls)

     Called by electrons:
     c_bands      :      7.87s CPU      8.04s WALL (       6 calls)
     sum_band     :      1.43s CPU      1.43s WALL (       6 calls)
     v_of_rho     :      0.05s CPU      0.06s WALL (       7 calls)
     mix_rho      :      0.00s CPU      0.00s WALL (       6 calls)

     Called by c_bands:
     init_us_2    :      0.28s CPU      0.28s WALL (    1080 calls)
     init_us_2:cp :      0.27s CPU      0.27s WALL (    1080 calls)
     cegterg      :      7.31s CPU      7.46s WALL (     432 calls)

     Called by *egterg:
     cdiaghg      :      0.17s CPU      0.18s WALL (    1724 calls)
     h_psi        :      6.46s CPU      6.59s WALL (    1796 calls)
     g_psi        :      0.03s CPU      0.03s WALL (    1292 calls)

     Called by h_psi:
     h_psi:calbec :      0.54s CPU      0.55s WALL (    1796 calls)
     vloc_psi     :      5.37s CPU      5.50s WALL (    1796 calls)
     add_vuspsi   :      0.50s CPU      0.50s WALL (    1796 calls)

     General routines
     calbec       :      0.72s CPU      0.72s WALL (    2156 calls)
     fft          :      0.13s CPU      0.14s WALL (      94 calls)
     ffts         :      0.00s CPU      0.00s WALL (       6 calls)
     fftw         :      5.42s CPU      5.53s WALL (   26106 calls)


     PWSCF        :     11.91s CPU     12.15s WALL


   This run was terminated on:  10:36:10  16Dec2024            

=------------------------------------------------------------------------------=
   JOB DONE.
=------------------------------------------------------------------------------=
