
     Program PWSCF v.7.3 starts on 16Dec2024 at 10:35:40 

     This program is part of the open-source Quantum ESPRESSO suite
     for quantum simulation of materials; please cite
         "P. Giannozzi et al., J. Phys.:Condens. Matter 21 395502 (2009);
         "P. Giannozzi et al., J. Phys.:Condens. Matter 29 465901 (2017);
         "P. Giannozzi et al., J. Chem. Phys. 152 154105 (2020);
          URL http://www.quantum-espresso.org", 
     in publications or presentations arising from this work. More details at
     http://www.quantum-espresso.org/quote

     Serial version
     5177 MiB available memory on the printing compute node when the environment starts

     Waiting for input...
     Reading input from standard input

     Current dimensions of program PWSCF are:
     Max number of different atomic species (ntypx) = 10
     Max number of k-points (npk) =  40000
     Max angular momentum in pseudopotentials (lmaxx) =  4
     Message from routine iosys:
     BEWARE:  force calculation with tetrahedra (not recommanded)
     Message from routine iosys:
     BEWARE: stress calculation with tetrahedra (not recommanded)


     G-vector sticks info
     --------------------
     sticks:   dense  smooth     PW     G-vecs:    dense   smooth      PW
     Sum         475     475    151                 6855     6855    1243

     Using Slab Decomposition



     bravais-lattice index     =            2
     lattice parameter (alat)  =       6.5760  a.u.
     unit-cell volume          =      71.0928 (a.u.)^3
     number of atoms/cell      =            2
     number of atomic types    =            2
     number of electrons       =         9.00
     number of Kohn-Sham states=            9
     kinetic-energy cutoff     =      80.0000  Ry
     charge density cutoff     =     320.0000  Ry
     scf convergence threshold =      1.0E-06
     mixing beta               =       0.7000
     number of iterations used =            8  plain     mixing
     Exchange-correlation= PBE
                           (   1   4   3   4   0   0   0)

     celldm(1)=   6.576000  celldm(2)=   0.000000  celldm(3)=   0.000000
     celldm(4)=   0.000000  celldm(5)=   0.000000  celldm(6)=   0.000000

     crystal axes: (cart. coord. in units of alat)
               a(1) = (  -0.500000   0.000000   0.500000 )  
               a(2) = (   0.000000   0.500000   0.500000 )  
               a(3) = (  -0.500000   0.500000   0.000000 )  

     reciprocal axes: (cart. coord. in units 2 pi/alat)
               b(1) = ( -1.000000 -1.000000  1.000000 )  
               b(2) = (  1.000000  1.000000  1.000000 )  
               b(3) = ( -1.000000  1.000000 -1.000000 )  


     PseudoPot. # 1 for Al read from file:
     ./PSEUDO/Al_ONCV_PBE_sr.upf
     MD5 check sum: 71949a6c272e6faf888e318530e21af5
     Pseudo is Norm-conserving + core correction, Zval =  3.0
     Generated using ONCVPSP code by D. R. Hamann
     Using radial grid of 1876 points,  6 beta functions with: 
                l(1) =   0
                l(2) =   0
                l(3) =   1
                l(4) =   1
                l(5) =   2
                l(6) =   2

     PseudoPot. # 2 for O  read from file:
     ./PSEUDO/O_ONCV_PBE_sr.upf
     MD5 check sum: b0122293cc47a814ad0627188f9a6d95
     Pseudo is Norm-conserving + core correction, Zval =  6.0
     Generated using ONCVPSP code by D. R. Hamann
     Using radial grid of  936 points,  5 beta functions with: 
                l(1) =   0
                l(2) =   0
                l(3) =   1
                l(4) =   1
                l(5) =   2

     atomic species   valence    mass     pseudopotential
     Al                3.00    26.98200     Al( 1.00)
     O                 6.00    15.99900     O ( 1.00)

     48 Sym. Ops., with inversion, found



   Cartesian axes

     site n.     atom                  positions (alat units)
         1        Al     tau(   1) = (   0.0000000   0.0000000   0.0000000  )
         2        O      tau(   2) = (  -0.5000000   0.5000000   0.5000000  )

     number of k points=    16 (tetrahedron method)
                       cart. coord. in units 2pi/alat
        k(    1) = (   0.0000000   0.0000000   0.0000000), wk =   0.0092593
        k(    2) = (  -0.1666667   0.1666667  -0.1666667), wk =   0.0740741
        k(    3) = (  -0.3333333   0.3333333  -0.3333333), wk =   0.0740741
        k(    4) = (   0.5000000  -0.5000000   0.5000000), wk =   0.0370370
        k(    5) = (   0.0000000   0.3333333   0.0000000), wk =   0.0555556
        k(    6) = (  -0.1666667   0.5000000  -0.1666667), wk =   0.2222222
        k(    7) = (   0.6666667  -0.3333333   0.6666667), wk =   0.2222222
        k(    8) = (   0.5000000  -0.1666667   0.5000000), wk =   0.2222222
        k(    9) = (   0.3333333   0.0000000   0.3333333), wk =   0.1111111
        k(   10) = (   0.0000000   0.6666667   0.0000000), wk =   0.0555556
        k(   11) = (   0.8333333  -0.1666667   0.8333333), wk =   0.2222222
        k(   12) = (   0.6666667   0.0000000   0.6666667), wk =   0.1111111
        k(   13) = (   0.0000000  -1.0000000   0.0000000), wk =   0.0277778
        k(   14) = (   0.6666667  -0.3333333   1.0000000), wk =   0.2222222
        k(   15) = (   0.5000000  -0.1666667   0.8333333), wk =   0.2222222
        k(   16) = (  -0.3333333  -1.0000000   0.0000000), wk =   0.1111111

     Dense  grid:     6855 G-vectors     FFT dimensions: (  27,  27,  27)

     Estimated max dynamical RAM per process >      10.18 MB

     Initial potential from superposition of free atoms

     starting charge       8.9975, renormalised to       9.0000
     Starting wfcs are    8 randomized atomic wfcs +    1 random wfcs

     total cpu time spent up to now is        0.8 secs

     Self-consistent Calculation

     iteration #  1     ecut=    80.00 Ry     beta= 0.70
     Davidson diagonalization with overlap
     ethr =  1.00E-02,  avg # of iterations =  6.1

     total cpu time spent up to now is        1.4 secs

     total energy              =     -37.10664537 Ry
     estimated scf accuracy    <       0.24819085 Ry

     iteration #  2     ecut=    80.00 Ry     beta= 0.70
     Davidson diagonalization with overlap
     ethr =  2.76E-03,  avg # of iterations =  2.0

     total cpu time spent up to now is        1.7 secs

     total energy              =     -37.18431317 Ry
     estimated scf accuracy    <       0.09671960 Ry

     iteration #  3     ecut=    80.00 Ry     beta= 0.70
     Davidson diagonalization with overlap
     ethr =  1.07E-03,  avg # of iterations =  1.9

     total cpu time spent up to now is        2.0 secs

     total energy              =     -37.20177208 Ry
     estimated scf accuracy    <       0.00056050 Ry

     iteration #  4     ecut=    80.00 Ry     beta= 0.70
     Davidson diagonalization with overlap
     ethr =  6.23E-06,  avg # of iterations =  3.6

     total cpu time spent up to now is        2.7 secs

     total energy              =     -37.20200691 Ry
     estimated scf accuracy    <       0.00005259 Ry

     iteration #  5     ecut=    80.00 Ry     beta= 0.70
     Davidson diagonalization with overlap
     ethr =  5.84E-07,  avg # of iterations =  1.4

     total cpu time spent up to now is        3.5 secs

     total energy              =     -37.20201893 Ry
     estimated scf accuracy    <       0.00000379 Ry

     iteration #  6     ecut=    80.00 Ry     beta= 0.70
     Davidson diagonalization with overlap
     ethr =  4.21E-08,  avg # of iterations =  2.0

     total cpu time spent up to now is        3.9 secs

     End of self-consistent calculation

          k = 0.0000 0.0000 0.0000 (   869 PWs)   bands (ev):

    -7.1125  14.7391  14.7391  14.7391  25.5184  32.8768  32.8768  32.8768
    39.3563

          k =-0.1667 0.1667-0.1667 (   881 PWs)   bands (ev):

    -6.4354  12.3356  14.3144  14.3144  26.6456  30.7050  33.9720  33.9721
    39.4937

          k =-0.3333 0.3333-0.3333 (   854 PWs)   bands (ev):

    -4.7048   8.1018  13.5582  13.5582  25.9749  32.3196  34.6963  34.6964
    41.0640

          k = 0.5000-0.5000 0.5000 (   862 PWs)   bands (ev):

    -3.4557   5.8463  13.2162  13.2162  25.4229  33.8473  34.4315  34.4315
    42.0292

          k = 0.0000 0.3333 0.0000 (   869 PWs)   bands (ev):

    -6.2199  12.3666  13.8439  13.8439  27.4804  28.5966  35.1452  35.1452
    36.4855

          k =-0.1667 0.5000-0.1667 (   857 PWs)   bands (ev):

    -4.8535   9.3921  12.7753  13.1257  27.0451  29.6925  33.7452  36.4542
    38.2618

          k = 0.6667-0.3333 0.6667 (   850 PWs)   bands (ev):

    -3.3027   6.6846  11.6304  12.8435  26.8814  31.7471  33.2524  35.9514
    41.2167

          k = 0.5000-0.1667 0.5000 (   858 PWs)   bands (ev):

    -3.7147   7.4165  11.3836  13.2220  27.4804  31.2833  33.6915  35.8120
    40.5194

          k = 0.3333 0.0000 0.3333 (   857 PWs)   bands (ev):

    -5.4046  10.4045  12.5532  13.9657  28.1888  29.2448  34.6514  35.5861
    37.2067

          k = 0.0000 0.6667 0.0000 (   866 PWs)   bands (ev):

    -4.0379   8.5358  12.4513  12.4513  24.7277  29.1719  33.2116  39.3157
    39.3157

          k = 0.8333-0.1667 0.8333 (   853 PWs)   bands (ev):

    -2.8652   7.3406  10.6763  12.1811  25.3784  29.6609  32.9971  39.2926
    40.4537

          k = 0.6667 0.0000 0.6667 (   866 PWs)   bands (ev):

    -2.6903   8.3307   8.3602  12.5277  27.5280  31.5993  32.2049  37.8530
    40.4689

          k = 0.0000-1.0000 0.0000 (   846 PWs)   bands (ev):

    -2.5600   6.5863  11.8830  11.8830  23.4006  27.9416  34.2871  41.3438
    41.3438

          k = 0.6667-0.3333 1.0000 (   857 PWs)   bands (ev):

    -3.5306   8.1799  10.6754  12.4831  27.8211  30.2951  31.9649  37.5303
    39.9301

          k = 0.5000-0.1667 0.8333 (   852 PWs)   bands (ev):

    -2.6883   7.5419   9.5806  11.9828  28.9042  30.1842  32.2679  36.7233
    41.9026

          k =-0.3333-1.0000 0.0000 (   858 PWs)   bands (ev):

    -2.4247   7.4903   9.9337  11.2562  26.9838  30.0870  32.3959  37.5302
    42.2495

     the Fermi energy is    27.1753 ev

!    total energy              =     -37.20202271 Ry
     estimated scf accuracy    <       0.00000015 Ry

     The total energy is the sum of the following terms:
     one-electron contribution =       4.37393950 Ry
     hartree contribution      =       7.27248653 Ry
     xc contribution           =     -11.50824540 Ry
     ewald contribution        =     -37.34020334 Ry

     convergence has been achieved in   6 iterations

     Forces acting on atoms (cartesian axes, Ry/au):

     atom    1 type  1   force =     0.00000000    0.00000000    0.00000000
     atom    2 type  2   force =     0.00000000    0.00000000    0.00000000

     Total force =     0.000000     Total SCF correction =     0.000000


     Computing stress (Cartesian axis) and pressure

          total   stress  (Ry/bohr**3)                   (kbar)     P=     3159.81
   0.02147994  -0.00000000  -0.00000000         3159.81       -0.00       -0.00
  -0.00000000   0.02147994   0.00000000           -0.00     3159.81        0.00
  -0.00000000   0.00000000   0.02147994           -0.00        0.00     3159.81


     Writing all to output data dir ./tmp/AlO.save/ :
     XML data file, charge density, pseudopotentials, collected wavefunctions

     init_run     :      0.73s CPU      0.74s WALL (       1 calls)
     electrons    :      3.00s CPU      3.06s WALL (       1 calls)
     forces       :      0.05s CPU      0.05s WALL (       1 calls)
     stress       :      0.19s CPU      0.19s WALL (       1 calls)

     Called by init_run:
     wfcinit      :      0.13s CPU      0.13s WALL (       1 calls)
     potinit      :      0.08s CPU      0.08s WALL (       1 calls)
     hinit0       :      0.51s CPU      0.52s WALL (       1 calls)

     Called by electrons:
     c_bands      :      2.52s CPU      2.56s WALL (       6 calls)
     sum_band     :      0.40s CPU      0.41s WALL (       6 calls)
     v_of_rho     :      0.08s CPU      0.09s WALL (       7 calls)
     mix_rho      :      0.01s CPU      0.01s WALL (       6 calls)

     Called by c_bands:
     init_us_2    :      0.07s CPU      0.08s WALL (     240 calls)
     init_us_2:cp :      0.07s CPU      0.07s WALL (     240 calls)
     cegterg      :      2.32s CPU      2.36s WALL (      96 calls)

     Called by *egterg:
     cdiaghg      :      0.05s CPU      0.05s WALL (     368 calls)
     h_psi        :      2.06s CPU      2.08s WALL (     384 calls)
     g_psi        :      0.01s CPU      0.01s WALL (     272 calls)

     Called by h_psi:
     h_psi:calbec :      0.18s CPU      0.18s WALL (     384 calls)
     vloc_psi     :      1.70s CPU      1.73s WALL (     384 calls)
     add_vuspsi   :      0.15s CPU      0.15s WALL (     384 calls)

     General routines
     calbec       :      0.21s CPU      0.21s WALL (     464 calls)
     fft          :      0.23s CPU      0.24s WALL (      94 calls)
     ffts         :      0.00s CPU      0.00s WALL (       6 calls)
     fftw         :      1.75s CPU      1.78s WALL (    5758 calls)


     PWSCF        :      4.04s CPU      4.11s WALL


   This run was terminated on:  10:35:44  16Dec2024            

=------------------------------------------------------------------------------=
   JOB DONE.
=------------------------------------------------------------------------------=
