
     Program PWSCF v.7.3 starts on 16Dec2024 at 10:36:41 

     This program is part of the open-source Quantum ESPRESSO suite
     for quantum simulation of materials; please cite
         "P. Giannozzi et al., J. Phys.:Condens. Matter 21 395502 (2009);
         "P. Giannozzi et al., J. Phys.:Condens. Matter 29 465901 (2017);
         "P. Giannozzi et al., J. Chem. Phys. 152 154105 (2020);
          URL http://www.quantum-espresso.org", 
     in publications or presentations arising from this work. More details at
     http://www.quantum-espresso.org/quote

     Serial version
     5181 MiB available memory on the printing compute node when the environment starts

     Waiting for input...
     Reading input from standard input

     Current dimensions of program PWSCF are:
     Max number of different atomic species (ntypx) = 10
     Max number of k-points (npk) =  40000
     Max angular momentum in pseudopotentials (lmaxx) =  4
     Message from routine iosys:
     BEWARE:  force calculation with tetrahedra (not recommanded)
     Message from routine iosys:
     BEWARE: stress calculation with tetrahedra (not recommanded)


     G-vector sticks info
     --------------------
     sticks:   dense  smooth     PW     G-vecs:    dense   smooth      PW
     Sum         301     301    109                 3479     3479     701

     Using Slab Decomposition



     bravais-lattice index     =            2
     lattice parameter (alat)  =       6.5760  a.u.
     unit-cell volume          =      71.0928 (a.u.)^3
     number of atoms/cell      =            2
     number of atomic types    =            2
     number of electrons       =         9.00
     number of Kohn-Sham states=            9
     kinetic-energy cutoff     =      50.0000  Ry
     charge density cutoff     =     200.0000  Ry
     scf convergence threshold =      1.0E-06
     mixing beta               =       0.7000
     number of iterations used =            8  plain     mixing
     Exchange-correlation= PBE
                           (   1   4   3   4   0   0   0)

     celldm(1)=   6.576000  celldm(2)=   0.000000  celldm(3)=   0.000000
     celldm(4)=   0.000000  celldm(5)=   0.000000  celldm(6)=   0.000000

     crystal axes: (cart. coord. in units of alat)
               a(1) = (  -0.500000   0.000000   0.500000 )  
               a(2) = (   0.000000   0.500000   0.500000 )  
               a(3) = (  -0.500000   0.500000   0.000000 )  

     reciprocal axes: (cart. coord. in units 2 pi/alat)
               b(1) = ( -1.000000 -1.000000  1.000000 )  
               b(2) = (  1.000000  1.000000  1.000000 )  
               b(3) = ( -1.000000  1.000000 -1.000000 )  


     PseudoPot. # 1 for Al read from file:
     ./PSEUDO/Al_ONCV_PBE_sr.upf
     MD5 check sum: 71949a6c272e6faf888e318530e21af5
     Pseudo is Norm-conserving + core correction, Zval =  3.0
     Generated using ONCVPSP code by D. R. Hamann
     Using radial grid of 1876 points,  6 beta functions with: 
                l(1) =   0
                l(2) =   0
                l(3) =   1
                l(4) =   1
                l(5) =   2
                l(6) =   2

     PseudoPot. # 2 for O  read from file:
     ./PSEUDO/O_ONCV_PBE_sr.upf
     MD5 check sum: b0122293cc47a814ad0627188f9a6d95
     Pseudo is Norm-conserving + core correction, Zval =  6.0
     Generated using ONCVPSP code by D. R. Hamann
     Using radial grid of  936 points,  5 beta functions with: 
                l(1) =   0
                l(2) =   0
                l(3) =   1
                l(4) =   1
                l(5) =   2

     atomic species   valence    mass     pseudopotential
     Al                3.00    26.98200     Al( 1.00)
     O                 6.00    15.99900     O ( 1.00)

     48 Sym. Ops., with inversion, found



   Cartesian axes

     site n.     atom                  positions (alat units)
         1        Al     tau(   1) = (   0.0000000   0.0000000   0.0000000  )
         2        O      tau(   2) = (  -0.5000000   0.5000000   0.5000000  )

     number of k points=    29 (tetrahedron method)
                       cart. coord. in units 2pi/alat
        k(    1) = (   0.0000000   0.0000000   0.0000000), wk =   0.0039062
        k(    2) = (  -0.1250000   0.1250000  -0.1250000), wk =   0.0312500
        k(    3) = (  -0.2500000   0.2500000  -0.2500000), wk =   0.0312500
        k(    4) = (  -0.3750000   0.3750000  -0.3750000), wk =   0.0312500
        k(    5) = (   0.5000000  -0.5000000   0.5000000), wk =   0.0156250
        k(    6) = (   0.0000000   0.2500000   0.0000000), wk =   0.0234375
        k(    7) = (  -0.1250000   0.3750000  -0.1250000), wk =   0.0937500
        k(    8) = (  -0.2500000   0.5000000  -0.2500000), wk =   0.0937500
        k(    9) = (   0.6250000  -0.3750000   0.6250000), wk =   0.0937500
        k(   10) = (   0.5000000  -0.2500000   0.5000000), wk =   0.0937500
        k(   11) = (   0.3750000  -0.1250000   0.3750000), wk =   0.0937500
        k(   12) = (   0.2500000   0.0000000   0.2500000), wk =   0.0468750
        k(   13) = (   0.0000000   0.5000000   0.0000000), wk =   0.0234375
        k(   14) = (  -0.1250000   0.6250000  -0.1250000), wk =   0.0937500
        k(   15) = (   0.7500000  -0.2500000   0.7500000), wk =   0.0937500
        k(   16) = (   0.6250000  -0.1250000   0.6250000), wk =   0.0937500
        k(   17) = (   0.5000000   0.0000000   0.5000000), wk =   0.0468750
        k(   18) = (   0.0000000   0.7500000   0.0000000), wk =   0.0234375
        k(   19) = (   0.8750000  -0.1250000   0.8750000), wk =   0.0937500
        k(   20) = (   0.7500000   0.0000000   0.7500000), wk =   0.0468750
        k(   21) = (   0.0000000  -1.0000000   0.0000000), wk =   0.0117188
        k(   22) = (  -0.2500000   0.5000000   0.0000000), wk =   0.0937500
        k(   23) = (   0.6250000  -0.3750000   0.8750000), wk =   0.1875000
        k(   24) = (   0.5000000  -0.2500000   0.7500000), wk =   0.0937500
        k(   25) = (   0.7500000  -0.2500000   1.0000000), wk =   0.0937500
        k(   26) = (   0.6250000  -0.1250000   0.8750000), wk =   0.1875000
        k(   27) = (   0.5000000   0.0000000   0.7500000), wk =   0.0937500
        k(   28) = (  -0.2500000  -1.0000000   0.0000000), wk =   0.0468750
        k(   29) = (  -0.5000000  -1.0000000   0.0000000), wk =   0.0234375

     Dense  grid:     3479 G-vectors     FFT dimensions: (  24,  24,  24)

     Estimated max dynamical RAM per process >       6.97 MB

     Check: negative core charge=   -0.000066

     Initial potential from superposition of free atoms

     starting charge       8.9975, renormalised to       9.0000
     Starting wfcs are    8 randomized atomic wfcs +    1 random wfcs

     total cpu time spent up to now is        1.2 secs

     Self-consistent Calculation

     iteration #  1     ecut=    50.00 Ry     beta= 0.70
     Davidson diagonalization with overlap
     ethr =  1.00E-02,  avg # of iterations =  5.5

     total cpu time spent up to now is        2.3 secs

     total energy              =     -37.07206458 Ry
     estimated scf accuracy    <       0.22005327 Ry

     iteration #  2     ecut=    50.00 Ry     beta= 0.70
     Davidson diagonalization with overlap
     ethr =  2.45E-03,  avg # of iterations =  2.0

     total cpu time spent up to now is        3.3 secs

     total energy              =     -37.13806040 Ry
     estimated scf accuracy    <       0.07625075 Ry

     iteration #  3     ecut=    50.00 Ry     beta= 0.70
     Davidson diagonalization with overlap
     ethr =  8.47E-04,  avg # of iterations =  1.7

     total cpu time spent up to now is        3.8 secs

     total energy              =     -37.15222784 Ry
     estimated scf accuracy    <       0.00053007 Ry

     iteration #  4     ecut=    50.00 Ry     beta= 0.70
     Davidson diagonalization with overlap
     ethr =  5.89E-06,  avg # of iterations =  4.1

     total cpu time spent up to now is        4.5 secs

     total energy              =     -37.15239599 Ry
     estimated scf accuracy    <       0.00003508 Ry

     iteration #  5     ecut=    50.00 Ry     beta= 0.70
     Davidson diagonalization with overlap
     ethr =  3.90E-07,  avg # of iterations =  1.6

     total cpu time spent up to now is        4.9 secs

     total energy              =     -37.15240332 Ry
     estimated scf accuracy    <       0.00000215 Ry

     iteration #  6     ecut=    50.00 Ry     beta= 0.70
     Davidson diagonalization with overlap
     ethr =  2.39E-08,  avg # of iterations =  2.1

     total cpu time spent up to now is        5.2 secs

     End of self-consistent calculation

          k = 0.0000 0.0000 0.0000 (   411 PWs)   bands (ev):

    -7.1706  14.8210  14.8210  14.8210  25.4654  32.8933  32.8933  32.8934
    39.3756

          k =-0.1250 0.1250-0.1250 (   423 PWs)   bands (ev):

    -6.7864  13.3019  14.5540  14.5540  26.3073  31.1745  33.5731  33.5731
    39.8247

          k =-0.2500 0.2500-0.2500 (   429 PWs)   bands (ev):

    -5.7177  10.2014  13.9687  13.9687  26.5156  31.1375  34.6503  34.6503
    39.6561

          k =-0.3750 0.3750-0.3750 (   422 PWs)   bands (ev):

    -4.3119   7.2069  13.4598  13.4598  25.7216  33.0554  34.6246  34.6246
    42.5893

          k = 0.5000-0.5000 0.5000 (   434 PWs)   bands (ev):

    -3.5377   5.8428  13.2450  13.2450  25.4069  33.9643  34.4448  34.4448
    42.0620

          k = 0.0000 0.2500 0.0000 (   423 PWs)   bands (ev):

    -6.6615  13.3137  14.2481  14.2481  26.7291  29.9007  34.2614  34.2615
    37.8786

          k =-0.1250 0.3750-0.1250 (   424 PWs)   bands (ev):

    -5.8280  11.0693  13.6633  13.6789  27.4820  29.0669  34.8631  35.5489
    37.1170

          k =-0.2500 0.5000-0.2500 (   427 PWs)   bands (ev):

    -4.5244   8.2400  12.8416  13.1881  26.7367  31.1569  33.8523  35.7442
    39.4963

          k = 0.6250-0.3750 0.6250 (   424 PWs)   bands (ev):

    -3.4523   6.3501  12.2451  13.0338  26.4494  32.3714  33.9326  35.3373
    42.0988

          k = 0.5000-0.2500 0.5000 (   423 PWs)   bands (ev):

    -3.7104   6.7979  12.1113  13.2693  26.6764  32.2142  34.0709  35.2476
    41.7751

          k = 0.3750-0.1250 0.3750 (   426 PWs)   bands (ev):

    -4.9823   9.1883  12.5224  13.7956  27.3640  30.5850  34.4905  35.5026
    38.2377

          k = 0.2500 0.0000 0.2500 (   421 PWs)   bands (ev):

    -6.1750  11.8225  13.5327  14.3593  27.3744  29.7458  34.4183  34.7338
    37.9643

          k = 0.0000 0.5000 0.0000 (   431 PWs)   bands (ev):

    -5.2822  10.3962  13.1206  13.1206  26.3831  28.8794  34.1194  37.3478
    37.3478

          k =-0.1250 0.6250-0.1250 (   429 PWs)   bands (ev):

    -4.2394   8.7043  12.1209  12.6601  25.9672  29.7911  32.8807  38.1311
    39.2287

          k = 0.7500-0.2500 0.7500 (   428 PWs)   bands (ev):

    -3.1921   7.3543  10.6630  12.5184  26.7364  31.5384  31.9636  37.6023
    40.4201

          k = 0.6250-0.1250 0.6250 (   420 PWs)   bands (ev):

    -3.0043   7.3420   9.7975  12.7659  27.8668  31.2014  33.0232  37.0640
    41.1602

          k = 0.5000 0.0000 0.5000 (   423 PWs)   bands (ev):

    -3.8718   8.3780  10.3749  13.2611  28.9758  29.9127  33.4505  36.8680
    38.9715

          k = 0.0000 0.7500 0.0000 (   432 PWs)   bands (ev):

    -3.5554   7.7519  12.2257  12.2257  24.1652  28.7920  33.5895  40.2605
    40.2605

          k = 0.8750-0.1250 0.8750 (   427 PWs)   bands (ev):

    -2.8348   7.0920  11.0808  12.0705  24.6674  28.9347  33.6829  40.1779
    40.8458

          k = 0.7500 0.0000 0.7500 (   431 PWs)   bands (ev):

    -2.6012   7.6053   9.1805  12.2658  26.3968  30.8607  32.7168  38.8501
    40.2699

          k = 0.0000-1.0000 0.0000 (   444 PWs)   bands (ev):

    -2.6517   6.5857  11.8806  11.8806  23.4172  27.9427  34.4267  41.4493
    41.4493

          k =-0.2500 0.5000 0.0000 (   422 PWs)   bands (ev):

    -4.8773   9.5907  12.1496  13.3818  27.8967  29.1140  33.6882  37.2890
    37.3883

          k = 0.6250-0.3750 0.8750 (   423 PWs)   bands (ev):

    -3.6771   7.7986  11.0128  12.8253  27.9201  30.6404  32.7018  36.8215
    40.0865

          k = 0.5000-0.2500 0.7500 (   418 PWs)   bands (ev):

    -3.0518   6.8725  10.6781  12.5773  27.9286  30.9250  33.2363  36.4569
    41.6673

          k = 0.7500-0.2500 1.0000 (   428 PWs)   bands (ev):

    -3.3240   7.8103  11.0469  12.0761  26.2325  30.0226  32.4093  38.5033
    40.6344

          k = 0.6250-0.1250 0.8750 (   424 PWs)   bands (ev):

    -2.6853   7.6852   9.5269  11.8106  27.7123  31.2094  31.6359  37.3129
    41.7137

          k = 0.5000 0.0000 0.7500 (   423 PWs)   bands (ev):

    -2.8634   8.0926   9.0518  12.1761  29.2025  30.1588  32.2227  36.9470
    42.5119

          k =-0.2500-1.0000 0.0000 (   426 PWs)   bands (ev):

    -2.5613   7.1071  10.6533  11.4871  25.6368  29.2829  33.3956  38.8296
    41.9521

          k =-0.5000-1.0000 0.0000 (   412 PWs)   bands (ev):

    -2.4680   8.5887   8.5887  11.1096  30.0317  30.0317  31.2653  36.1025
    43.8910

     the Fermi energy is    27.1589 ev

!    total energy              =     -37.15240512 Ry
     estimated scf accuracy    <       0.00000012 Ry

     The total energy is the sum of the following terms:
     one-electron contribution =       4.45448151 Ry
     hartree contribution      =       7.22787332 Ry
     xc contribution           =     -11.49455657 Ry
     ewald contribution        =     -37.34020338 Ry

     convergence has been achieved in   6 iterations

     Forces acting on atoms (cartesian axes, Ry/au):

     atom    1 type  1   force =     0.00000000    0.00000000    0.00000000
     atom    2 type  2   force =     0.00000000    0.00000000    0.00000000

     Total force =     0.000000     Total SCF correction =     0.000000


     Computing stress (Cartesian axis) and pressure

          total   stress  (Ry/bohr**3)                   (kbar)     P=     2725.10
   0.01852484   0.00000000   0.00000000         2725.10        0.00        0.00
   0.00000000   0.01852484   0.00000000            0.00     2725.10        0.00
  -0.00000000   0.00000000   0.01852484           -0.00        0.00     2725.10


     Writing all to output data dir ./tmp/AlO.save/ :
     XML data file, charge density, pseudopotentials, collected wavefunctions

     init_run     :      0.94s CPU      0.94s WALL (       1 calls)
     electrons    :      3.96s CPU      4.03s WALL (       1 calls)
     forces       :      0.05s CPU      0.05s WALL (       1 calls)
     stress       :      0.51s CPU      0.52s WALL (       1 calls)

     Called by init_run:
     wfcinit      :      0.46s CPU      0.46s WALL (       1 calls)
     potinit      :      0.06s CPU      0.06s WALL (       1 calls)
     hinit0       :      0.42s CPU      0.42s WALL (       1 calls)

     Called by electrons:
     c_bands      :      3.37s CPU      3.43s WALL (       6 calls)
     sum_band     :      0.54s CPU      0.55s WALL (       6 calls)
     v_of_rho     :      0.05s CPU      0.05s WALL (       7 calls)
     mix_rho      :      0.00s CPU      0.00s WALL (       6 calls)

     Called by c_bands:
     init_us_2    :      0.14s CPU      0.14s WALL (     435 calls)
     init_us_2:cp :      0.14s CPU      0.14s WALL (     435 calls)
     cegterg      :      3.17s CPU      3.22s WALL (     174 calls)

     Called by *egterg:
     cdiaghg      :      0.11s CPU      0.12s WALL (     667 calls)
     h_psi        :      2.90s CPU      2.94s WALL (     696 calls)
     g_psi        :      0.02s CPU      0.02s WALL (     493 calls)

     Called by h_psi:
     h_psi:calbec :      0.25s CPU      0.26s WALL (     696 calls)
     vloc_psi     :      2.42s CPU      2.46s WALL (     696 calls)
     add_vuspsi   :      0.21s CPU      0.21s WALL (     696 calls)

     General routines
     calbec       :      0.31s CPU      0.31s WALL (     841 calls)
     fft          :      0.28s CPU      0.28s WALL (      94 calls)
     ffts         :      0.00s CPU      0.00s WALL (       6 calls)
     fftw         :      2.32s CPU      2.37s WALL (   10476 calls)


     PWSCF        :      5.68s CPU      5.81s WALL


   This run was terminated on:  10:36:47  16Dec2024            

=------------------------------------------------------------------------------=
   JOB DONE.
=------------------------------------------------------------------------------=
