
     Program BANDS v.7.3 starts on 16Dec2024 at 12:16:15 

     This program is part of the open-source Quantum ESPRESSO suite
     for quantum simulation of materials; please cite
         "P. Giannozzi et al., J. Phys.:Condens. Matter 21 395502 (2009);
         "P. Giannozzi et al., J. Phys.:Condens. Matter 29 465901 (2017);
         "P. Giannozzi et al., J. Chem. Phys. 152 154105 (2020);
          URL http://www.quantum-espresso.org", 
     in publications or presentations arising from this work. More details at
     http://www.quantum-espresso.org/quote

     Serial version
     4863 MiB available memory on the printing compute node when the environment starts


     Reading xml data from directory:

     ./tmp/AlO.save/

     IMPORTANT: XC functional enforced from input :
     Exchange-correlation= PBE
                           (   1   4   3   4   0   0   0)
     Any further DFT definition will be discarded
     Please, verify this is what you really want


     G-vector sticks info
     --------------------
     sticks:   dense  smooth     PW     G-vecs:    dense   smooth      PW
     Sum         793     793    241                14553    14553    2421

     Using Slab Decomposition

     Reading collected, re-writing distributed wavefunctions
     high-symmetry point:  0.0000 0.0000 0.0000   x coordinate   0.0000
     high-symmetry point:  0.0000 1.0000 0.0000   x coordinate   1.0000
     high-symmetry point:  0.5000 1.0000 0.0000   x coordinate   1.5000
     high-symmetry point:  0.7500 0.7500 0.0000   x coordinate   1.8536
     high-symmetry point:  0.0000 0.0000 0.0000   x coordinate   2.9142
     high-symmetry point:  0.5000 0.5000 0.5000   x coordinate   3.7802
     high-symmetry point:  0.2500 1.0000 0.2500   x coordinate   4.3926
     high-symmetry point:  0.5000 1.0000 0.0000   x coordinate   4.7462
     high-symmetry point:  0.5000 0.5000 0.5000   x coordinate   5.4533

     Plottable bands (eV) written to file AlO.bands.dat.gnu
     Bands written to file AlO.bands.dat

 **************************************************************************

                    xk=(   0.00000,   0.00000,   0.00000  )

     point group O_h (m-3m) 
     there are 10 classes
     the character table:

       E     8C3   3C2   6C4   6C2'  i     8S6   3s_h  6S4   6s_d 
A_1g   1.00  1.00  1.00  1.00  1.00  1.00  1.00  1.00  1.00  1.00
A_2g   1.00  1.00  1.00 -1.00 -1.00  1.00  1.00  1.00 -1.00 -1.00
E_g    2.00 -1.00  2.00  0.00  0.00  2.00 -1.00  2.00  0.00  0.00
T_1g   3.00  0.00 -1.00  1.00 -1.00  3.00  0.00 -1.00  1.00 -1.00
T_2g   3.00  0.00 -1.00 -1.00  1.00  3.00  0.00 -1.00 -1.00  1.00
A_1u   1.00  1.00  1.00  1.00  1.00 -1.00 -1.00 -1.00 -1.00 -1.00
A_2u   1.00  1.00  1.00 -1.00 -1.00 -1.00 -1.00 -1.00  1.00  1.00
E_u    2.00 -1.00  2.00  0.00  0.00 -2.00  1.00 -2.00  0.00  0.00
T_1u   3.00  0.00 -1.00  1.00 -1.00 -3.00  0.00  1.00 -1.00  1.00
T_2u   3.00  0.00 -1.00 -1.00  1.00 -3.00  0.00  1.00  1.00 -1.00

     the symmetry operations in each class and the name of the first element:

     E        1
                                                                 
     8C3     17   19   20   18   24   21   22   23
                                                                 
     3C2      2    4    3
                                                                 
     6C4      7    8   15   16   12   11
                                                                 
     6C2'     5    6   14   13   10    9
                                                                 
     i       25
                                                                 
     8S6     41   43   44   42   48   45   46   47
                                                                 
     3s_h    26   28   27
                                                                 
     6S4     31   32   39   40   36   35
                                                                 
     6s_d    29   30   38   37   34   33
                                                                 

     Band symmetry, O_h (m-3m)  point group:

     e(  1 -  1) =    -11.56555  eV     1   --> A_1g G_1   G_1+
     e(  2 -  4) =      4.97251  eV     3   --> T_1u G_15  G_4-
     e(  5 -  5) =      5.82480  eV     1   --> A_1g G_1   G_1+
     e(  6 -  7) =     18.68993  eV     2   -->   ?

 **************************************************************************

 **************************************************************************

                    xk=(   0.00000,   0.02500,   0.00000  )

     point group C_4v (4mm) 
     there are  5 classes
     the character table:

       E     2C4   C2    2s_v  2s_d 
A_1    1.00  1.00  1.00  1.00  1.00
A_2    1.00  1.00  1.00 -1.00 -1.00
B_1    1.00 -1.00  1.00  1.00 -1.00
B_2    1.00 -1.00  1.00 -1.00  1.00
E      2.00  0.00 -2.00  0.00  0.00

     the symmetry operations in each class and the name of the first element:

     E        1
                                                                 
     2C4      3    4
                                                                 
     C2       2
                                                                 
     2s_v     5    6
                                                                 
     2s_d     7    8
                                                                 

     Band symmetry, C_4v (4mm)  point group:

     e(  1 -  1) =    -11.56368  eV     1   --> A_1  G_1 D_1   
     e(  2 -  2) =      4.92337  eV     1   --> A_1  G_1 D_1   
     e(  3 -  4) =      4.97000  eV     2   --> E    G_5 D_5   
     e(  5 -  5) =      5.87660  eV     1   --> A_1  G_1 D_1   
     e(  6 -  6) =     18.66136  eV     1   -->   ?
     e(  7 -  7) =     18.68409  eV     1   -->   ?

 **************************************************************************

 **************************************************************************

                    xk=(   0.00000,   0.05000,   0.00000  )

     Band symmetry, C_4v (4mm)  point group:

     e(  1 -  1) =    -11.55808  eV     1   --> A_1  G_1 D_1   
     e(  2 -  2) =      4.80102  eV     1   --> A_1  G_1 D_1   
     e(  3 -  4) =      4.96252  eV     2   --> E    G_5 D_5   
     e(  5 -  5) =      6.00695  eV     1   --> A_1  G_1 D_1   
     e(  6 -  6) =     18.57851  eV     1   --> B_2  G_4 D_2'  
     e(  7 -  7) =     18.66716  eV     1   -->   ?

 **************************************************************************

 **************************************************************************

                    xk=(   0.00000,   0.07500,   0.00000  )

     Band symmetry, C_4v (4mm)  point group:

     e(  1 -  1) =    -11.54877  eV     1   --> A_1  G_1 D_1   
     e(  2 -  2) =      4.64248  eV     1   --> A_1  G_1 D_1   
     e(  3 -  4) =      4.95010  eV     2   --> E    G_5 D_5   
     e(  5 -  5) =      6.17873  eV     1   --> A_1  G_1 D_1   
     e(  6 -  6) =     18.44921  eV     1   --> B_2  G_4 D_2'  
     e(  7 -  7) =     18.64066  eV     1   -->   ?

 **************************************************************************

 **************************************************************************

                    xk=(   0.00000,   0.10000,   0.00000  )

     Band symmetry, C_4v (4mm)  point group:

     e(  1 -  1) =    -11.53580  eV     1   --> A_1  G_1 D_1   
     e(  2 -  2) =      4.46842  eV     1   --> A_1  G_1 D_1   
     e(  3 -  4) =      4.93289  eV     2   --> E    G_5 D_5   
     e(  5 -  5) =      6.37118  eV     1   --> A_1  G_1 D_1   
     e(  6 -  6) =     18.28335  eV     1   --> B_2  G_4 D_2'  
     e(  7 -  7) =     18.60681  eV     1   -->   ?

 **************************************************************************

 **************************************************************************

                    xk=(   0.00000,   0.12500,   0.00000  )

     Band symmetry, C_4v (4mm)  point group:

     e(  1 -  1) =    -11.51922  eV     1   --> A_1  G_1 D_1   
     e(  2 -  2) =      4.28827  eV     1   --> A_1  G_1 D_1   
     e(  3 -  4) =      4.91103  eV     2   --> E    G_5 D_5   
     e(  5 -  5) =      6.57470  eV     1   --> A_1  G_1 D_1   
     e(  6 -  6) =     18.09060  eV     1   --> B_2  G_4 D_2'  
     e(  7 -  7) =     18.56804  eV     1   -->   ?

 **************************************************************************

 **************************************************************************

                    xk=(   0.00000,   0.15000,   0.00000  )

     Band symmetry, C_4v (4mm)  point group:

     e(  1 -  1) =    -11.49912  eV     1   --> A_1  G_1 D_1   
     e(  2 -  2) =      4.10660  eV     1   --> A_1  G_1 D_1   
     e(  3 -  4) =      4.88474  eV     2   --> E    G_5 D_5   
     e(  5 -  5) =      6.78460  eV     1   --> A_1  G_1 D_1   
     e(  6 -  6) =     17.87925  eV     1   --> B_2  G_4 D_2'  
     e(  7 -  7) =     18.52667  eV     1   -->   ?

 **************************************************************************

 **************************************************************************

                    xk=(   0.00000,   0.17500,   0.00000  )

     Band symmetry, C_4v (4mm)  point group:

     e(  1 -  1) =    -11.47559  eV     1   --> A_1  G_1 D_1   
     e(  2 -  2) =      3.92582  eV     1   --> A_1  G_1 D_1   
     e(  3 -  4) =      4.85425  eV     2   --> E    G_5 D_5   
     e(  5 -  5) =      6.99820  eV     1   --> A_1  G_1 D_1   
     e(  6 -  6) =     17.65584  eV     1   --> B_2  G_4 D_2'  
     e(  7 -  7) =     18.48472  eV     1   -->   ?

 **************************************************************************

 **************************************************************************

                    xk=(   0.00000,   0.20000,   0.00000  )

     Band symmetry, C_4v (4mm)  point group:

     e(  1 -  1) =    -11.44874  eV     1   --> A_1  G_1 D_1   
     e(  2 -  2) =      3.74736  eV     1   --> A_1  G_1 D_1   
     e(  3 -  4) =      4.81985  eV     2   --> E    G_5 D_5   
     e(  5 -  5) =      7.21378  eV     1   --> A_1  G_1 D_1   
     e(  6 -  6) =     17.42536  eV     1   --> B_2  G_4 D_2'  
     e(  7 -  7) =     18.44383  eV     1   -->   ?

 **************************************************************************

 **************************************************************************

                    xk=(   0.00000,   0.22500,   0.00000  )

     Band symmetry, C_4v (4mm)  point group:

     e(  1 -  1) =    -11.41869  eV     1   --> A_1  G_1 D_1   
     e(  2 -  2) =      3.57214  eV     1   --> A_1  G_1 D_1   
     e(  3 -  4) =      4.78183  eV     2   --> E    G_5 D_5   
     e(  5 -  5) =      7.43001  eV     1   --> A_1  G_1 D_1   
     e(  6 -  6) =     17.19150  eV     1   --> B_2  G_4 D_2'  
     e(  7 -  7) =     18.40529  eV     1   -->   ?

 **************************************************************************

 **************************************************************************

                    xk=(   0.00000,   0.25000,   0.00000  )

     Band symmetry, C_4v (4mm)  point group:

     e(  1 -  1) =    -11.38560  eV     1   --> A_1  G_1 D_1   
     e(  2 -  2) =      3.40082  eV     1   --> A_1  G_1 D_1   
     e(  3 -  4) =      4.74051  eV     2   --> E    G_5 D_5   
     e(  5 -  5) =      7.64578  eV     1   --> A_1  G_1 D_1   
     e(  6 -  6) =     16.95705  eV     1   --> B_2  G_4 D_2'  
     e(  7 -  7) =     18.19142  eV     1   --> A_1  G_1 D_1   

 **************************************************************************

 **************************************************************************

                    xk=(   0.00000,   0.27500,   0.00000  )

     Band symmetry, C_4v (4mm)  point group:

     e(  1 -  1) =    -11.34962  eV     1   --> A_1  G_1 D_1   
     e(  2 -  2) =      3.23391  eV     1   --> A_1  G_1 D_1   
     e(  3 -  4) =      4.69626  eV     2   --> E    G_5 D_5   
     e(  5 -  5) =      7.86002  eV     1   --> A_1  G_1 D_1   
     e(  6 -  6) =     16.72407  eV     1   --> B_2  G_4 D_2'  
     e(  7 -  7) =     17.82655  eV     1   --> A_1  G_1 D_1   

 **************************************************************************

 **************************************************************************

                    xk=(   0.00000,   0.30000,   0.00000  )

     Band symmetry, C_4v (4mm)  point group:

     e(  1 -  1) =    -11.31094  eV     1   --> A_1  G_1 D_1   
     e(  2 -  2) =      3.07177  eV     1   --> A_1  G_1 D_1   
     e(  3 -  4) =      4.64943  eV     2   --> E    G_5 D_5   
     e(  5 -  5) =      8.07160  eV     1   --> A_1  G_1 D_1   
     e(  6 -  6) =     16.49413  eV     1   --> B_2  G_4 D_2'  
     e(  7 -  7) =     17.46861  eV     1   --> A_1  G_1 D_1   

 **************************************************************************

 **************************************************************************

                    xk=(   0.00000,   0.32500,   0.00000  )

     Band symmetry, C_4v (4mm)  point group:

     e(  1 -  1) =    -11.26975  eV     1   --> A_1  G_1 D_1   
     e(  2 -  2) =      2.91473  eV     1   --> A_1  G_1 D_1   
     e(  3 -  4) =      4.60038  eV     2   --> E    G_5 D_5   
     e(  5 -  5) =      8.27936  eV     1   --> A_1  G_1 D_1   
     e(  6 -  6) =     16.26843  eV     1   --> B_2  G_4 D_2'  
     e(  7 -  7) =     17.11959  eV     1   --> A_1  G_1 D_1   

 **************************************************************************

 **************************************************************************

                    xk=(   0.00000,   0.35000,   0.00000  )

     Band symmetry, C_4v (4mm)  point group:

     e(  1 -  1) =    -11.22627  eV     1   --> A_1  G_1 D_1   
     e(  2 -  2) =      2.76307  eV     1   --> A_1  G_1 D_1   
     e(  3 -  4) =      4.54949  eV     2   --> E    G_5 D_5   
     e(  5 -  5) =      8.48198  eV     1   --> A_1  G_1 D_1   
     e(  6 -  6) =     16.04787  eV     1   --> B_2  G_4 D_2'  
     e(  7 -  7) =     16.78145  eV     1   --> A_1  G_1 D_1   

 **************************************************************************

 **************************************************************************

                    xk=(   0.00000,   0.37500,   0.00000  )

     Band symmetry, C_4v (4mm)  point group:

     e(  1 -  1) =    -11.18073  eV     1   --> A_1  G_1 D_1   
     e(  2 -  2) =      2.61701  eV     1   --> A_1  G_1 D_1   
     e(  3 -  4) =      4.49713  eV     2   --> E    G_5 D_5   
     e(  5 -  5) =      8.67794  eV     1   --> A_1  G_1 D_1   
     e(  6 -  6) =     15.83318  eV     1   --> B_2  G_4 D_2'  
     e(  7 -  7) =     16.45624  eV     1   --> A_1  G_1 D_1   

 **************************************************************************

 **************************************************************************

                    xk=(   0.00000,   0.40000,   0.00000  )

     Band symmetry, C_4v (4mm)  point group:

     e(  1 -  1) =    -11.13336  eV     1   --> A_1  G_1 D_1   
     e(  2 -  2) =      2.47679  eV     1   --> A_1  G_1 D_1   
     e(  3 -  4) =      4.44370  eV     2   --> E    G_5 D_5   
     e(  5 -  5) =      8.86559  eV     1   --> A_1  G_1 D_1   
     e(  6 -  6) =     15.62493  eV     1   --> B_2  G_4 D_2'  
     e(  7 -  7) =     16.14616  eV     1   --> A_1  G_1 D_1   

 **************************************************************************

 **************************************************************************

                    xk=(   0.00000,   0.42500,   0.00000  )

     Band symmetry, C_4v (4mm)  point group:

     e(  1 -  1) =    -11.08444  eV     1   --> A_1  G_1 D_1   
     e(  2 -  2) =      2.34256  eV     1   --> A_1  G_1 D_1   
     e(  3 -  4) =      4.38954  eV     2   --> E    G_5 D_5   
     e(  5 -  5) =      9.04296  eV     1   --> A_1  G_1 D_1   
     e(  6 -  6) =     15.42356  eV     1   --> B_2  G_4 D_2'  
     e(  7 -  7) =     15.85357  eV     1   --> A_1  G_1 D_1   

 **************************************************************************

 **************************************************************************

                    xk=(   0.00000,   0.45000,   0.00000  )

     Band symmetry, C_4v (4mm)  point group:

     e(  1 -  1) =    -11.03423  eV     1   --> A_1  G_1 D_1   
     e(  2 -  2) =      2.21447  eV     1   --> A_1  G_1 D_1   
     e(  3 -  4) =      4.33500  eV     2   --> E    G_5 D_5   
     e(  5 -  5) =      9.20782  eV     1   --> A_1  G_1 D_1   
     e(  6 -  6) =     15.22944  eV     1   --> B_2  G_4 D_2'  
     e(  7 -  7) =     15.58102  eV     1   --> A_1  G_1 D_1   

 **************************************************************************

 **************************************************************************

                    xk=(   0.00000,   0.47500,   0.00000  )

     Band symmetry, C_4v (4mm)  point group:

     e(  1 -  1) =    -10.98303  eV     1   --> A_1  G_1 D_1   
     e(  2 -  2) =      2.09264  eV     1   --> A_1  G_1 D_1   
     e(  3 -  4) =      4.28043  eV     2   --> E    G_5 D_5   
     e(  5 -  5) =      9.35766  eV     1   --> A_1  G_1 D_1   
     e(  6 -  6) =     15.04286  eV     1   --> B_2  G_4 D_2'  
     e(  7 -  7) =     15.33125  eV     1   --> A_1  G_1 D_1   

 **************************************************************************

 **************************************************************************

                    xk=(   0.00000,   0.50000,   0.00000  )

     Band symmetry, C_4v (4mm)  point group:

     e(  1 -  1) =    -10.93113  eV     1   --> A_1  G_1 D_1   
     e(  2 -  2) =      1.97717  eV     1   --> A_1  G_1 D_1   
     e(  3 -  4) =      4.22620  eV     2   --> E    G_5 D_5   
     e(  5 -  5) =      9.48986  eV     1   --> A_1  G_1 D_1   
     e(  6 -  6) =     14.86407  eV     1   --> B_2  G_4 D_2'  
     e(  7 -  7) =     15.10721  eV     1   --> A_1  G_1 D_1   

 **************************************************************************

 **************************************************************************

                    xk=(   0.00000,   0.52500,   0.00000  )

     Band symmetry, C_4v (4mm)  point group:

     e(  1 -  1) =    -10.87885  eV     1   --> A_1  G_1 D_1   
     e(  2 -  2) =      1.86815  eV     1   --> A_1  G_1 D_1   
     e(  3 -  4) =      4.17260  eV     2   --> E    G_5 D_5   
     e(  5 -  5) =      9.60170  eV     1   --> A_1  G_1 D_1   
     e(  6 -  6) =     14.69326  eV     1   --> B_2  G_4 D_2'  
     e(  7 -  7) =     14.91174  eV     1   --> A_1  G_1 D_1   

 **************************************************************************

 **************************************************************************

                    xk=(   0.00000,   0.55000,   0.00000  )

     Band symmetry, C_4v (4mm)  point group:

     e(  1 -  1) =    -10.82650  eV     1   --> A_1  G_1 D_1   
     e(  2 -  2) =      1.76562  eV     1   --> A_1  G_1 D_1   
     e(  3 -  4) =      4.11997  eV     2   --> E    G_5 D_5   
     e(  5 -  5) =      9.69064  eV     1   --> A_1  G_1 D_1   
     e(  6 -  6) =     14.53060  eV     1   --> B_2  G_4 D_2'  
     e(  7 -  7) =     14.74747  eV     1   --> A_1  G_1 D_1   

 **************************************************************************

 **************************************************************************

                    xk=(   0.00000,   0.57500,   0.00000  )

     Band symmetry, C_4v (4mm)  point group:

     e(  1 -  1) =    -10.77442  eV     1   --> A_1  G_1 D_1   
     e(  2 -  2) =      1.66960  eV     1   --> A_1  G_1 D_1   
     e(  3 -  4) =      4.06857  eV     2   --> E    G_5 D_5   
     e(  5 -  5) =      9.75469  eV     1   --> A_1  G_1 D_1   
     e(  6 -  6) =     14.37622  eV     1   --> B_2  G_4 D_2'  
     e(  7 -  7) =     14.61644  eV     1   --> A_1  G_1 D_1   

 **************************************************************************

 **************************************************************************

                    xk=(   0.00000,   0.60000,   0.00000  )

     Band symmetry, C_4v (4mm)  point group:

     e(  1 -  1) =    -10.72295  eV     1   --> A_1  G_1 D_1   
     e(  2 -  2) =      1.58010  eV     1   --> A_1  G_1 D_1   
     e(  3 -  4) =      4.01867  eV     2   --> E    G_5 D_5   
     e(  5 -  5) =      9.79273  eV     1   --> A_1  G_1 D_1   
     e(  6 -  6) =     14.23024  eV     1   --> B_2  G_4 D_2'  
     e(  7 -  7) =     14.51969  eV     1   --> A_1  G_1 D_1   

 **************************************************************************

 **************************************************************************

                    xk=(   0.00000,   0.62500,   0.00000  )

     Band symmetry, C_4v (4mm)  point group:

     e(  1 -  1) =    -10.67241  eV     1   --> A_1  G_1 D_1   
     e(  2 -  2) =      1.49710  eV     1   --> A_1  G_1 D_1   
     e(  3 -  4) =      3.97057  eV     2   --> E    G_5 D_5   
     e(  5 -  5) =      9.80496  eV     1   --> A_1  G_1 D_1   
     e(  6 -  6) =     14.09276  eV     1   --> B_2  G_4 D_2'  
     e(  7 -  7) =     14.45704  eV     1   --> A_1  G_1 D_1   

 **************************************************************************

 **************************************************************************

                    xk=(   0.00000,   0.65000,   0.00000  )

     Band symmetry, C_4v (4mm)  point group:

     e(  1 -  1) =    -10.62315  eV     1   --> A_1  G_1 D_1   
     e(  2 -  2) =      1.42051  eV     1   --> A_1  G_1 D_1   
     e(  3 -  4) =      3.92447  eV     2   --> E    G_5 D_5   
     e(  5 -  5) =      9.79276  eV     1   --> A_1  G_1 D_1   
     e(  6 -  6) =     13.96385  eV     1   --> B_2  G_4 D_2'  
     e(  7 -  7) =     14.42672  eV     1   --> A_1  G_1 D_1   

 **************************************************************************

 **************************************************************************

                    xk=(   0.00000,   0.67500,   0.00000  )

     Band symmetry, C_4v (4mm)  point group:

     e(  1 -  1) =    -10.57550  eV     1   --> A_1  G_1 D_1   
     e(  2 -  2) =      1.35024  eV     1   --> A_1  G_1 D_1   
     e(  3 -  4) =      3.88061  eV     2   --> E    G_5 D_5   
     e(  5 -  5) =      9.75898  eV     1   --> A_1  G_1 D_1   
     e(  6 -  6) =     13.84361  eV     1   --> B_2  G_4 D_2'  
     e(  7 -  7) =     14.42565  eV     1   --> A_1  G_1 D_1   

 **************************************************************************

 **************************************************************************

                    xk=(   0.00000,   0.70000,   0.00000  )

     Band symmetry, C_4v (4mm)  point group:

     e(  1 -  1) =    -10.52980  eV     1   --> A_1  G_1 D_1   
     e(  2 -  2) =      1.28625  eV     1   --> A_1  G_1 D_1   
     e(  3 -  4) =      3.83922  eV     2   --> E    G_5 D_5   
     e(  5 -  5) =      9.70739  eV     1   --> A_1  G_1 D_1   
     e(  6 -  6) =     13.73211  eV     1   --> B_2  G_4 D_2'  
     e(  7 -  7) =     14.44973  eV     1   --> A_1  G_1 D_1   

 **************************************************************************

 **************************************************************************

                    xk=(   0.00000,   0.72500,   0.00000  )

     Band symmetry, C_4v (4mm)  point group:

     e(  1 -  1) =    -10.48636  eV     1   --> A_1  G_1 D_1   
     e(  2 -  2) =      1.22834  eV     1   --> A_1  G_1 D_1   
     e(  3 -  4) =      3.80045  eV     2   --> E    G_5 D_5   
     e(  5 -  5) =      9.64226  eV     1   --> A_1  G_1 D_1   
     e(  6 -  6) =     13.62935  eV     1   --> B_2  G_4 D_2'  
     e(  7 -  7) =     14.49413  eV     1   --> A_1  G_1 D_1   

 **************************************************************************

 **************************************************************************

                    xk=(   0.00000,   0.75000,   0.00000  )

     Band symmetry, C_4v (4mm)  point group:

     e(  1 -  1) =    -10.44552  eV     1   --> A_1  G_1 D_1   
     e(  2 -  2) =      1.17639  eV     1   --> A_1  G_1 D_1   
     e(  3 -  4) =      3.76450  eV     2   --> E    G_5 D_5   
     e(  5 -  5) =      9.56804  eV     1   --> A_1  G_1 D_1   
     e(  6 -  6) =     13.53540  eV     1   --> B_2  G_4 D_2'  
     e(  7 -  7) =     14.55389  eV     1   --> A_1  G_1 D_1   

 **************************************************************************

 **************************************************************************

                    xk=(   0.00000,   0.77500,   0.00000  )

     Band symmetry, C_4v (4mm)  point group:

     e(  1 -  1) =    -10.40755  eV     1   --> A_1  G_1 D_1   
     e(  2 -  2) =      1.13021  eV     1   --> A_1  G_1 D_1   
     e(  3 -  4) =      3.73149  eV     2   --> E    G_5 D_5   
     e(  5 -  5) =      9.48891  eV     1   --> A_1  G_1 D_1   
     e(  6 -  6) =     13.45030  eV     1   --> B_2  G_4 D_2'  
     e(  7 -  7) =     14.62395  eV     1   --> A_1  G_1 D_1   

 **************************************************************************

 **************************************************************************

                    xk=(   0.00000,   0.80000,   0.00000  )

     Band symmetry, C_4v (4mm)  point group:

     e(  1 -  1) =    -10.37276  eV     1   --> A_1  G_1 D_1   
     e(  2 -  2) =      1.08961  eV     1   --> A_1  G_1 D_1   
     e(  3 -  4) =      3.70160  eV     2   --> E    G_5 D_5   
     e(  5 -  5) =      9.40873  eV     1   --> A_1  G_1 D_1   
     e(  6 -  6) =     13.37409  eV     1   --> B_2  G_4 D_2'  
     e(  7 -  7) =     14.69974  eV     1   --> A_1  G_1 D_1   

 **************************************************************************

 **************************************************************************

                    xk=(   0.00000,   0.82500,   0.00000  )

     Band symmetry, C_4v (4mm)  point group:

     e(  1 -  1) =    -10.34139  eV     1   --> A_1  G_1 D_1   
     e(  2 -  2) =      1.05440  eV     1   --> A_1  G_1 D_1   
     e(  3 -  4) =      3.67494  eV     2   --> E    G_5 D_5   
     e(  5 -  5) =      9.33083  eV     1   --> A_1  G_1 D_1   
     e(  6 -  6) =     13.30678  eV     1   --> B_2  G_4 D_2'  
     e(  7 -  7) =     14.77702  eV     1   --> A_1  G_1 D_1   

 **************************************************************************

 **************************************************************************

                    xk=(   0.00000,   0.85000,   0.00000  )

     Band symmetry, C_4v (4mm)  point group:

     e(  1 -  1) =    -10.31369  eV     1   --> A_1  G_1 D_1   
     e(  2 -  2) =      1.02436  eV     1   --> A_1  G_1 D_1   
     e(  3 -  4) =      3.65165  eV     2   --> E    G_5 D_5   
     e(  5 -  5) =      9.25807  eV     1   --> A_1  G_1 D_1   
     e(  6 -  6) =     13.24841  eV     1   --> B_2  G_4 D_2'  
     e(  7 -  7) =     14.85193  eV     1   --> A_1  G_1 D_1   

 **************************************************************************

 **************************************************************************

                    xk=(   0.00000,   0.87500,   0.00000  )

     Band symmetry, C_4v (4mm)  point group:

     e(  1 -  1) =    -10.28988  eV     1   --> A_1  G_1 D_1   
     e(  2 -  2) =      0.99935  eV     1   --> A_1  G_1 D_1   
     e(  3 -  4) =      3.63176  eV     2   --> E    G_5 D_5   
     e(  5 -  5) =      9.19281  eV     1   --> A_1  G_1 D_1   
     e(  6 -  6) =     13.19898  eV     1   --> B_2  G_4 D_2'  
     e(  7 -  7) =     14.92123  eV     1   --> A_1  G_1 D_1   

 **************************************************************************

 **************************************************************************

                    xk=(   0.00000,   0.90000,   0.00000  )

     Band symmetry, C_4v (4mm)  point group:

     e(  1 -  1) =    -10.27013  eV     1   --> A_1  G_1 D_1   
     e(  2 -  2) =      0.97916  eV     1   --> A_1  G_1 D_1   
     e(  3 -  4) =      3.61538  eV     2   --> E    G_5 D_5   
     e(  5 -  5) =      9.13696  eV     1   --> A_1  G_1 D_1   
     e(  6 -  6) =     13.15852  eV     1   --> B_2  G_4 D_2'  
     e(  7 -  7) =     14.98200  eV     1   --> A_1  G_1 D_1   

 **************************************************************************

 **************************************************************************

                    xk=(   0.00000,   0.92500,   0.00000  )

     Band symmetry, C_4v (4mm)  point group:

     e(  1 -  1) =    -10.25461  eV     1   --> A_1  G_1 D_1   
     e(  2 -  2) =      0.96364  eV     1   --> A_1  G_1 D_1   
     e(  3 -  4) =      3.60259  eV     2   --> E    G_5 D_5   
     e(  5 -  5) =      9.09203  eV     1   --> A_1  G_1 D_1   
     e(  6 -  6) =     13.12704  eV     1   --> B_2  G_4 D_2'  
     e(  7 -  7) =     15.03188  eV     1   --> A_1  G_1 D_1   

 **************************************************************************

 **************************************************************************

                    xk=(   0.00000,   0.95000,   0.00000  )

     Band symmetry, C_4v (4mm)  point group:

     e(  1 -  1) =    -10.24343  eV     1   --> A_1  G_1 D_1   
     e(  2 -  2) =      0.95266  eV     1   --> A_1  G_1 D_1   
     e(  3 -  4) =      3.59340  eV     2   --> E    G_5 D_5   
     e(  5 -  5) =      9.05915  eV     1   --> A_1  G_1 D_1   
     e(  6 -  6) =     13.10454  eV     1   --> B_2  G_4 D_2'  
     e(  7 -  7) =     15.06893  eV     1   --> A_1  G_1 D_1   

 **************************************************************************

 **************************************************************************

                    xk=(   0.00000,   0.97500,   0.00000  )

     Band symmetry, C_4v (4mm)  point group:

     e(  1 -  1) =    -10.23669  eV     1   --> A_1  G_1 D_1   
     e(  2 -  2) =      0.94611  eV     1   --> A_1  G_1 D_1   
     e(  3 -  4) =      3.58789  eV     2   --> E    G_5 D_5   
     e(  5 -  5) =      9.03911  eV     1   --> A_1  G_1 D_1   
     e(  6 -  6) =     13.09107  eV     1   --> B_2  G_4 D_2'  
     e(  7 -  7) =     15.09169  eV     1   --> A_1  G_1 D_1   

 **************************************************************************

 **************************************************************************

                    xk=(   0.00000,   1.00000,   0.00000  )

     point group D_4h(4/mmm)
     there are 10 classes
     the character table:

       E     2C4   C2    2C2'  2C2'' i     2S4   s_h   2s_v  2s_d 
A_1g   1.00  1.00  1.00  1.00  1.00  1.00  1.00  1.00  1.00  1.00
A_2g   1.00  1.00  1.00 -1.00 -1.00  1.00  1.00  1.00 -1.00 -1.00
B_1g   1.00 -1.00  1.00  1.00 -1.00  1.00 -1.00  1.00  1.00 -1.00
B_2g   1.00 -1.00  1.00 -1.00  1.00  1.00 -1.00  1.00 -1.00  1.00
E_g    2.00  0.00 -2.00  0.00  0.00  2.00  0.00 -2.00  0.00  0.00
A_1u   1.00  1.00  1.00  1.00  1.00 -1.00 -1.00 -1.00 -1.00 -1.00
A_2u   1.00  1.00  1.00 -1.00 -1.00 -1.00 -1.00 -1.00  1.00  1.00
B_1u   1.00 -1.00  1.00  1.00 -1.00 -1.00  1.00 -1.00 -1.00  1.00
B_2u   1.00 -1.00  1.00 -1.00  1.00 -1.00  1.00 -1.00  1.00 -1.00
E_u    2.00  0.00 -2.00  0.00  0.00 -2.00  0.00  2.00  0.00  0.00

     the symmetry operations in each class and the name of the first element:

     E        1
                                                                 
     2C4      7    8
                                                                 
     C2       3
                                                                 
     2C2'     2    4
                                                                 
     2C2''    5    6
                                                                 
     i        9
                                                                 
     2S4     15   16
                                                                 
     s_h     11
                                                                 
     2s_v    10   12
                                                                 
     2s_d    13   14
                                                                 

     Band symmetry, D_4h(4/mmm) point group:

     e(  1 -  1) =    -10.23444  eV     1   --> A_1g X_1  M_1  
     e(  2 -  2) =      0.94395  eV     1   --> A_2u X_4' M_4' 
     e(  3 -  4) =      3.58605  eV     2   --> E_u  X_5' M_5' 
     e(  5 -  5) =      9.03237  eV     1   --> A_1g X_1  M_1  
     e(  6 -  6) =     13.08657  eV     1   --> B_2g X_3  M_3  
     e(  7 -  7) =     15.09939  eV     1   --> A_2u X_4' M_4' 

 **************************************************************************

 **************************************************************************

                    xk=(   0.01250,   1.00000,   0.00000  )

     point group C_2v (mm2) 
     there are  4 classes
     the character table:

       E     C2    s_v   s_v' 
A_1    1.00  1.00  1.00  1.00
A_2    1.00  1.00 -1.00 -1.00
B_1    1.00 -1.00  1.00 -1.00
B_2    1.00 -1.00 -1.00  1.00

     the symmetry operations in each class and the name of the first element:

     E        1
                                                                 
     C2       2
                                                                 
     s_v      4
                                                                 
     s_v'     3
                                                                 

     Band symmetry, C_2v (mm2)  point group:

     e(  1 -  1) =    -10.23439  eV     1   --> A_1  D_1  S_1  
     e(  2 -  2) =      0.94469  eV     1   --> B_2  D_4  S_4  
     e(  3 -  3) =      3.58455  eV     1   --> B_1  D_3  S_3  
     e(  4 -  4) =      3.58477  eV     1   --> A_1  D_1  S_1  
     e(  5 -  5) =      9.03539  eV     1   --> A_1  D_1  S_1  
     e(  6 -  6) =     13.08817  eV     1   --> B_1  D_3  S_3  
     e(  7 -  7) =     15.09899  eV     1   --> B_2  D_4  S_4  

 **************************************************************************

 **************************************************************************

                    xk=(   0.02500,   1.00000,   0.00000  )

     Band symmetry, C_2v (mm2)  point group:

     e(  1 -  1) =    -10.23426  eV     1   --> A_1  D_1  S_1  
     e(  2 -  2) =      0.94693  eV     1   --> B_2  D_4  S_4  
     e(  3 -  3) =      3.58006  eV     1   --> B_1  D_3  S_3  
     e(  4 -  4) =      3.58099  eV     1   --> A_1  D_1  S_1  
     e(  5 -  5) =      9.04444  eV     1   --> A_1  D_1  S_1  
     e(  6 -  6) =     13.09299  eV     1   --> B_1  D_3  S_3  
     e(  7 -  7) =     15.09777  eV     1   --> B_2  D_4  S_4  

 **************************************************************************

 **************************************************************************

                    xk=(   0.03750,   1.00000,   0.00000  )

     Band symmetry, C_2v (mm2)  point group:

     e(  1 -  1) =    -10.23404  eV     1   --> A_1  D_1  S_1  
     e(  2 -  2) =      0.95067  eV     1   --> B_2  D_4  S_4  
     e(  3 -  3) =      3.57261  eV     1   --> B_1  D_3  S_3  
     e(  4 -  4) =      3.57474  eV     1   --> A_1  D_1  S_1  
     e(  5 -  5) =      9.05946  eV     1   --> A_1  D_1  S_1  
     e(  6 -  6) =     13.10102  eV     1   --> B_1  D_3  S_3  
     e(  7 -  7) =     15.09576  eV     1   --> B_2  D_4  S_4  

 **************************************************************************

 **************************************************************************

                    xk=(   0.05000,   1.00000,   0.00000  )

     Band symmetry, C_2v (mm2)  point group:

     e(  1 -  1) =    -10.23373  eV     1   --> A_1  D_1  S_1  
     e(  2 -  2) =      0.95589  eV     1   --> B_2  D_4  S_4  
     e(  3 -  3) =      3.56223  eV     1   --> B_1  D_3  S_3  
     e(  4 -  4) =      3.56608  eV     1   --> A_1  D_1  S_1  
     e(  5 -  5) =      9.08039  eV     1   --> A_1  D_1  S_1  
     e(  6 -  6) =     13.11219  eV     1   --> B_1  D_3  S_3  
     e(  7 -  7) =     15.09295  eV     1   --> B_2  D_4  S_4  

 **************************************************************************

 **************************************************************************

                    xk=(   0.06250,   1.00000,   0.00000  )

     Band symmetry, C_2v (mm2)  point group:

     e(  1 -  1) =    -10.23333  eV     1   --> A_1  D_1  S_1  
     e(  2 -  2) =      0.96261  eV     1   --> B_2  D_4  S_4  
     e(  3 -  3) =      3.54896  eV     1   --> B_1  D_3  S_3  
     e(  4 -  4) =      3.55508  eV     1   --> A_1  D_1  S_1  
     e(  5 -  5) =      9.10710  eV     1   --> A_1  D_1  S_1  
     e(  6 -  6) =     13.12643  eV     1   --> B_1  D_3  S_3  
     e(  7 -  7) =     15.08933  eV     1   --> B_2  D_4  S_4  

 **************************************************************************

 **************************************************************************

                    xk=(   0.07500,   1.00000,   0.00000  )

     Band symmetry, C_2v (mm2)  point group:

     e(  1 -  1) =    -10.23285  eV     1   --> A_1  D_1  S_1  
     e(  2 -  2) =      0.97081  eV     1   --> B_2  D_4  S_4  
     e(  3 -  3) =      3.53284  eV     1   --> B_1  D_3  S_3  
     e(  4 -  4) =      3.54188  eV     1   --> A_1  D_1  S_1  
     e(  5 -  5) =      9.13947  eV     1   --> A_1  D_1  S_1  
     e(  6 -  6) =     13.14366  eV     1   --> B_1  D_3  S_3  
     e(  7 -  7) =     15.08489  eV     1   --> B_2  D_4  S_4  

 **************************************************************************

 **************************************************************************

                    xk=(   0.08750,   1.00000,   0.00000  )

     Band symmetry, C_2v (mm2)  point group:

     e(  1 -  1) =    -10.23230  eV     1   --> A_1  D_1  S_1  
     e(  2 -  2) =      0.98049  eV     1   --> B_2  D_4  S_4  
     e(  3 -  3) =      3.51396  eV     1   --> B_1  D_3  S_3  
     e(  4 -  4) =      3.52663  eV     1   --> A_1  D_1  S_1  
     e(  5 -  5) =      9.17733  eV     1   --> A_1  D_1  S_1  
     e(  6 -  6) =     13.16377  eV     1   --> B_1  D_3  S_3  
     e(  7 -  7) =     15.07966  eV     1   --> B_2  D_4  S_4  

 **************************************************************************

 **************************************************************************

                    xk=(   0.10000,   1.00000,   0.00000  )

     Band symmetry, C_2v (mm2)  point group:

     e(  1 -  1) =    -10.23166  eV     1   --> A_1  D_1  S_1  
     e(  2 -  2) =      0.99165  eV     1   --> B_2  D_4  S_4  
     e(  3 -  3) =      3.49239  eV     1   --> B_1  D_3  S_3  
     e(  4 -  4) =      3.50945  eV     1   --> A_1  D_1  S_1  
     e(  5 -  5) =      9.22050  eV     1   --> A_1  D_1  S_1  
     e(  6 -  6) =     13.18664  eV     1   --> B_1  D_3  S_3  
     e(  7 -  7) =     15.07363  eV     1   --> B_2  D_4  S_4  

 **************************************************************************

 **************************************************************************

                    xk=(   0.11250,   1.00000,   0.00000  )

     Band symmetry, C_2v (mm2)  point group:

     e(  1 -  1) =    -10.23096  eV     1   --> A_1  D_1  S_1  
     e(  2 -  2) =      1.00428  eV     1   --> B_2  D_4  S_4  
     e(  3 -  3) =      3.46823  eV     1   --> B_1  D_3  S_3  
     e(  4 -  4) =      3.49052  eV     1   --> A_1  D_1  S_1  
     e(  5 -  5) =      9.26877  eV     1   --> A_1  D_1  S_1  
     e(  6 -  6) =     13.21215  eV     1   --> B_1  D_3  S_3  
     e(  7 -  7) =     15.06680  eV     1   --> B_2  D_4  S_4  

 **************************************************************************

 **************************************************************************

                    xk=(   0.12500,   1.00000,   0.00000  )

     Band symmetry, C_2v (mm2)  point group:

     e(  1 -  1) =    -10.23018  eV     1   --> A_1  D_1  S_1  
     e(  2 -  2) =      1.01837  eV     1   --> B_2  D_4  S_4  
     e(  3 -  3) =      3.44154  eV     1   --> B_1  D_3  S_3  
     e(  4 -  4) =      3.47000  eV     1   --> A_1  D_1  S_1  
     e(  5 -  5) =      9.32192  eV     1   --> A_1  D_1  S_1  
     e(  6 -  6) =     13.24013  eV     1   --> B_1  D_3  S_3  
     e(  7 -  7) =     15.05917  eV     1   --> B_2  D_4  S_4  

 **************************************************************************

 **************************************************************************

                    xk=(   0.13750,   1.00000,   0.00000  )

     Band symmetry, C_2v (mm2)  point group:

     e(  1 -  1) =    -10.22934  eV     1   --> A_1  D_1  S_1  
     e(  2 -  2) =      1.03392  eV     1   --> B_2  D_4  S_4  
     e(  3 -  3) =      3.41245  eV     1   --> B_1  D_3  S_3  
     e(  4 -  4) =      3.44807  eV     1   --> A_1  D_1  S_1  
     e(  5 -  5) =      9.37972  eV     1   --> A_1  D_1  S_1  
     e(  6 -  6) =     13.27044  eV     1   --> B_1  D_3  S_3  
     e(  7 -  7) =     15.05073  eV     1   --> B_2  D_4  S_4  

 **************************************************************************

 **************************************************************************

                    xk=(   0.15000,   1.00000,   0.00000  )

     Band symmetry, C_2v (mm2)  point group:

     e(  1 -  1) =    -10.22844  eV     1   --> A_1  D_1  S_1  
     e(  2 -  2) =      1.05091  eV     1   --> B_2  D_4  S_4  
     e(  3 -  3) =      3.38107  eV     1   --> B_1  D_3  S_3  
     e(  4 -  4) =      3.42492  eV     1   --> A_1  D_1  S_1  
     e(  5 -  5) =      9.44190  eV     1   --> A_1  D_1  S_1  
     e(  6 -  6) =     13.30291  eV     1   --> B_1  D_3  S_3  
     e(  7 -  7) =     15.04148  eV     1   --> B_2  D_4  S_4  

 **************************************************************************

 **************************************************************************

                    xk=(   0.16250,   1.00000,   0.00000  )

     Band symmetry, C_2v (mm2)  point group:

     e(  1 -  1) =    -10.22749  eV     1   --> A_1  D_1  S_1  
     e(  2 -  2) =      1.06935  eV     1   --> B_2  D_4  S_4  
     e(  3 -  3) =      3.34750  eV     1   --> B_1  D_3  S_3  
     e(  4 -  4) =      3.40075  eV     1   --> A_1  D_1  S_1  
     e(  5 -  5) =      9.50821  eV     1   --> A_1  D_1  S_1  
     e(  6 -  6) =     13.33737  eV     1   --> B_1  D_3  S_3  
     e(  7 -  7) =     15.03145  eV     1   --> B_2  D_4  S_4  

 **************************************************************************

 **************************************************************************

                    xk=(   0.17500,   1.00000,   0.00000  )

     Band symmetry, C_2v (mm2)  point group:

     e(  1 -  1) =    -10.22649  eV     1   --> A_1  D_1  S_1  
     e(  2 -  2) =      1.08920  eV     1   --> B_2  D_4  S_4  
     e(  3 -  3) =      3.31186  eV     1   --> B_1  D_3  S_3  
     e(  4 -  4) =      3.37573  eV     1   --> A_1  D_1  S_1  
     e(  5 -  5) =      9.57837  eV     1   --> A_1  D_1  S_1  
     e(  6 -  6) =     13.37363  eV     1   --> B_1  D_3  S_3  
     e(  7 -  7) =     15.02058  eV     1   --> B_2  D_4  S_4  

 **************************************************************************

 **************************************************************************

                    xk=(   0.18750,   1.00000,   0.00000  )

     Band symmetry, C_2v (mm2)  point group:

     e(  1 -  1) =    -10.22545  eV     1   --> A_1  D_1  S_1  
     e(  2 -  2) =      1.11048  eV     1   --> B_2  D_4  S_4  
     e(  3 -  3) =      3.27427  eV     1   --> B_1  D_3  S_3  
     e(  4 -  4) =      3.35004  eV     1   --> A_1  D_1  S_1  
     e(  5 -  5) =      9.65208  eV     1   --> A_1  D_1  S_1  
     e(  6 -  6) =     13.41151  eV     1   --> B_1  D_3  S_3  
     e(  7 -  7) =     15.00891  eV     1   --> B_2  D_4  S_4  

 **************************************************************************

 **************************************************************************

                    xk=(   0.20000,   1.00000,   0.00000  )

     Band symmetry, C_2v (mm2)  point group:

     e(  1 -  1) =    -10.22438  eV     1   --> A_1  D_1  S_1  
     e(  2 -  2) =      1.13316  eV     1   --> B_2  D_4  S_4  
     e(  3 -  3) =      3.23486  eV     1   --> B_1  D_3  S_3  
     e(  4 -  4) =      3.32389  eV     1   --> A_1  D_1  S_1  
     e(  5 -  5) =      9.72906  eV     1   --> A_1  D_1  S_1  
     e(  6 -  6) =     13.45082  eV     1   --> B_1  D_3  S_3  
     e(  7 -  7) =     14.99643  eV     1   --> B_2  D_4  S_4  

 **************************************************************************

 **************************************************************************

                    xk=(   0.21250,   1.00000,   0.00000  )

     Band symmetry, C_2v (mm2)  point group:

     e(  1 -  1) =    -10.22328  eV     1   --> A_1  D_1  S_1  
     e(  2 -  2) =      1.15722  eV     1   --> B_2  D_4  S_4  
     e(  3 -  3) =      3.19372  eV     1   --> B_1  D_3  S_3  
     e(  4 -  4) =      3.29745  eV     1   --> A_1  D_1  S_1  
     e(  5 -  5) =      9.80900  eV     1   --> A_1  D_1  S_1  
     e(  6 -  6) =     13.49139  eV     1   --> B_1  D_3  S_3  
     e(  7 -  7) =     14.98313  eV     1   --> B_2  D_4  S_4  

 **************************************************************************

 **************************************************************************

                    xk=(   0.22500,   1.00000,   0.00000  )

     Band symmetry, C_2v (mm2)  point group:

     e(  1 -  1) =    -10.22215  eV     1   --> A_1  D_1  S_1  
     e(  2 -  2) =      1.18266  eV     1   --> B_2  D_4  S_4  
     e(  3 -  3) =      3.15104  eV     1   --> B_1  D_3  S_3  
     e(  4 -  4) =      3.27088  eV     1   --> A_1  D_1  S_1  
     e(  5 -  5) =      9.89158  eV     1   --> A_1  D_1  S_1  
     e(  6 -  6) =     13.53303  eV     1   --> B_1  D_3  S_3  
     e(  7 -  7) =     14.96901  eV     1   --> B_2  D_4  S_4  

 **************************************************************************

 **************************************************************************

                    xk=(   0.23750,   1.00000,   0.00000  )

     Band symmetry, C_2v (mm2)  point group:

     e(  1 -  1) =    -10.22101  eV     1   --> A_1  D_1  S_1  
     e(  2 -  2) =      1.20946  eV     1   --> B_2  D_4  S_4  
     e(  3 -  3) =      3.10690  eV     1   --> B_1  D_3  S_3  
     e(  4 -  4) =      3.24437  eV     1   --> A_1  D_1  S_1  
     e(  5 -  5) =      9.97647  eV     1   --> A_1  D_1  S_1  
     e(  6 -  6) =     13.57555  eV     1   --> B_1  D_3  S_3  
     e(  7 -  7) =     14.95407  eV     1   --> B_2  D_4  S_4  

 **************************************************************************

 **************************************************************************

                    xk=(   0.25000,   1.00000,   0.00000  )

     Band symmetry, C_2v (mm2)  point group:

     e(  1 -  1) =    -10.21987  eV     1   --> A_1  D_1  S_1  
     e(  2 -  2) =      1.23760  eV     1   --> B_2  D_4  S_4  
     e(  3 -  3) =      3.06144  eV     1   --> B_1  D_3  S_3  
     e(  4 -  4) =      3.21806  eV     1   --> A_1  D_1  S_1  
     e(  5 -  5) =     10.06331  eV     1   --> A_1  D_1  S_1  
     e(  6 -  6) =     13.61880  eV     1   --> B_1  D_3  S_3  
     e(  7 -  7) =     14.93831  eV     1   --> B_2  D_4  S_4  

 **************************************************************************

 **************************************************************************

                    xk=(   0.26250,   1.00000,   0.00000  )

     Band symmetry, C_2v (mm2)  point group:

     e(  1 -  1) =    -10.21872  eV     1   --> A_1  D_1  S_1  
     e(  2 -  2) =      1.26707  eV     1   --> B_2  D_4  S_4  
     e(  3 -  3) =      3.01478  eV     1   --> B_1  D_3  S_3  
     e(  4 -  4) =      3.19212  eV     1   --> A_1  D_1  S_1  
     e(  5 -  5) =     10.15175  eV     1   --> A_1  D_1  S_1  
     e(  6 -  6) =     13.66259  eV     1   --> B_1  D_3  S_3  
     e(  7 -  7) =     14.92173  eV     1   --> B_2  D_4  S_4  

 **************************************************************************

 **************************************************************************

                    xk=(   0.27500,   1.00000,   0.00000  )

     Band symmetry, C_2v (mm2)  point group:

     e(  1 -  1) =    -10.21758  eV     1   --> A_1  D_1  S_1  
     e(  2 -  2) =      1.29783  eV     1   --> B_2  D_4  S_4  
     e(  3 -  3) =      2.96706  eV     1   --> B_1  D_3  S_3  
     e(  4 -  4) =      3.16668  eV     1   --> A_1  D_1  S_1  
     e(  5 -  5) =     10.24141  eV     1   --> A_1  D_1  S_1  
     e(  6 -  6) =     13.70675  eV     1   --> B_1  D_3  S_3  
     e(  7 -  7) =     14.90429  eV     1   --> B_2  D_4  S_4  

 **************************************************************************

 **************************************************************************

                    xk=(   0.28750,   1.00000,   0.00000  )

     Band symmetry, C_2v (mm2)  point group:

     e(  1 -  1) =    -10.21645  eV     1   --> A_1  D_1  S_1  
     e(  2 -  2) =      1.32989  eV     1   --> B_2  D_4  S_4  
     e(  3 -  3) =      2.91836  eV     1   --> B_1  D_3  S_3  
     e(  4 -  4) =      3.14189  eV     1   --> A_1  D_1  S_1  
     e(  5 -  5) =     10.33188  eV     1   --> A_1  D_1  S_1  
     e(  6 -  6) =     13.75116  eV     1   --> B_1  D_3  S_3  
     e(  7 -  7) =     14.88604  eV     1   --> B_2  D_4  S_4  

 **************************************************************************

 **************************************************************************

                    xk=(   0.30000,   1.00000,   0.00000  )

     Band symmetry, C_2v (mm2)  point group:

     e(  1 -  1) =    -10.21534  eV     1   --> A_1  D_1  S_1  
     e(  2 -  2) =      1.36321  eV     1   --> B_2  D_4  S_4  
     e(  3 -  3) =      2.86883  eV     1   --> B_1  D_3  S_3  
     e(  4 -  4) =      3.11787  eV     1   --> A_1  D_1  S_1  
     e(  5 -  5) =     10.42272  eV     1   --> A_1  D_1  S_1  
     e(  6 -  6) =     13.79566  eV     1   --> B_1  D_3  S_3  
     e(  7 -  7) =     14.86694  eV     1   --> B_2  D_4  S_4  

 **************************************************************************

 **************************************************************************

                    xk=(   0.31250,   1.00000,   0.00000  )

     Band symmetry, C_2v (mm2)  point group:

     e(  1 -  1) =    -10.21426  eV     1   --> A_1  D_1  S_1  
     e(  2 -  2) =      1.39777  eV     1   --> B_2  D_4  S_4  
     e(  3 -  3) =      2.81857  eV     1   --> B_1  D_3  S_3  
     e(  4 -  4) =      3.09475  eV     1   --> A_1  D_1  S_1  
     e(  5 -  5) =     10.51348  eV     1   --> A_1  D_1  S_1  
     e(  6 -  6) =     13.84012  eV     1   --> B_1  D_3  S_3  
     e(  7 -  7) =     14.84701  eV     1   --> B_2  D_4  S_4  

 **************************************************************************

 **************************************************************************

                    xk=(   0.32500,   1.00000,   0.00000  )

     Band symmetry, C_2v (mm2)  point group:

     e(  1 -  1) =    -10.21321  eV     1   --> A_1  D_1  S_1  
     e(  2 -  2) =      1.43355  eV     1   --> B_2  D_4  S_4  
     e(  3 -  3) =      2.76769  eV     1   --> B_1  D_3  S_3  
     e(  4 -  4) =      3.07261  eV     1   --> A_1  D_1  S_1  
     e(  5 -  5) =     10.60362  eV     1   --> A_1  D_1  S_1  
     e(  6 -  6) =     13.88441  eV     1   --> B_1  D_3  S_3  
     e(  7 -  7) =     14.82621  eV     1   --> B_2  D_4  S_4  

 **************************************************************************

 **************************************************************************

                    xk=(   0.33750,   1.00000,   0.00000  )

     Band symmetry, C_2v (mm2)  point group:

     e(  1 -  1) =    -10.21221  eV     1   --> A_1  D_1  S_1  
     e(  2 -  2) =      1.47052  eV     1   --> B_2  D_4  S_4  
     e(  3 -  3) =      2.71630  eV     1   --> B_1  D_3  S_3  
     e(  4 -  4) =      3.05157  eV     1   --> A_1  D_1  S_1  
     e(  5 -  5) =     10.69261  eV     1   --> A_1  D_1  S_1  
     e(  6 -  6) =     13.92842  eV     1   --> B_1  D_3  S_3  
     e(  7 -  7) =     14.80456  eV     1   --> B_2  D_4  S_4  

 **************************************************************************

 **************************************************************************

                    xk=(   0.35000,   1.00000,   0.00000  )

     Band symmetry, C_2v (mm2)  point group:

     e(  1 -  1) =    -10.21125  eV     1   --> A_1  D_1  S_1  
     e(  2 -  2) =      1.50865  eV     1   --> B_2  D_4  S_4  
     e(  3 -  3) =      2.66451  eV     1   --> B_1  D_3  S_3  
     e(  4 -  4) =      3.03172  eV     1   --> A_1  D_1  S_1  
     e(  5 -  5) =     10.77984  eV     1   --> A_1  D_1  S_1  
     e(  6 -  6) =     13.97205  eV     1   --> B_1  D_3  S_3  
     e(  7 -  7) =     14.78203  eV     1   --> B_2  D_4  S_4  

 **************************************************************************

 **************************************************************************

                    xk=(   0.36250,   1.00000,   0.00000  )

     Band symmetry, C_2v (mm2)  point group:

     e(  1 -  1) =    -10.21034  eV     1   --> A_1  D_1  S_1  
     e(  2 -  2) =      1.54791  eV     1   --> B_2  D_4  S_4  
     e(  3 -  3) =      2.61241  eV     1   --> B_1  D_3  S_3  
     e(  4 -  4) =      3.01315  eV     1   --> A_1  D_1  S_1  
     e(  5 -  5) =     10.86466  eV     1   --> A_1  D_1  S_1  
     e(  6 -  6) =     14.01517  eV     1   --> B_1  D_3  S_3  
     e(  7 -  7) =     14.75862  eV     1   --> B_2  D_4  S_4  

 **************************************************************************

 **************************************************************************

                    xk=(   0.37500,   1.00000,   0.00000  )

     Band symmetry, C_2v (mm2)  point group:

     e(  1 -  1) =    -10.20950  eV     1   --> A_1  D_1  S_1  
     e(  2 -  2) =      1.58828  eV     1   --> B_2  D_4  S_4  
     e(  3 -  3) =      2.56010  eV     1   --> B_1  D_3  S_3  
     e(  4 -  4) =      2.99595  eV     1   --> A_1  D_1  S_1  
     e(  5 -  5) =     10.94637  eV     1   --> A_1  D_1  S_1  
     e(  6 -  6) =     14.05777  eV     1   --> B_1  D_3  S_3  
     e(  7 -  7) =     14.73434  eV     1   --> B_2  D_4  S_4  

 **************************************************************************

 **************************************************************************

                    xk=(   0.38750,   1.00000,   0.00000  )

     Band symmetry, C_2v (mm2)  point group:

     e(  1 -  1) =    -10.20871  eV     1   --> A_1  D_1  S_1  
     e(  2 -  2) =      1.62971  eV     1   --> B_2  D_4  S_4  
     e(  3 -  3) =      2.50769  eV     1   --> B_1  D_3  S_3  
     e(  4 -  4) =      2.98017  eV     1   --> A_1  D_1  S_1  
     e(  5 -  5) =     11.02421  eV     1   --> A_1  D_1  S_1  
     e(  6 -  6) =     14.09973  eV     1   --> B_1  D_3  S_3  
     e(  7 -  7) =     14.70915  eV     1   --> B_2  D_4  S_4  

 **************************************************************************

 **************************************************************************

                    xk=(   0.40000,   1.00000,   0.00000  )

     Band symmetry, C_2v (mm2)  point group:

     e(  1 -  1) =    -10.20800  eV     1   --> A_1  D_1  S_1  
     e(  2 -  2) =      1.67218  eV     1   --> B_2  D_4  S_4  
     e(  3 -  3) =      2.45524  eV     1   --> B_1  D_3  S_3  
     e(  4 -  4) =      2.96589  eV     1   --> A_1  D_1  S_1  
     e(  5 -  5) =     11.09733  eV     1   --> A_1  D_1  S_1  
     e(  6 -  6) =     14.14101  eV     1   --> B_1  D_3  S_3  
     e(  7 -  7) =     14.68309  eV     1   --> B_2  D_4  S_4  

 **************************************************************************

 **************************************************************************

                    xk=(   0.41250,   1.00000,   0.00000  )

     Band symmetry, C_2v (mm2)  point group:

     e(  1 -  1) =    -10.20736  eV     1   --> A_1  D_1  S_1  
     e(  2 -  2) =      1.71564  eV     1   --> B_2  D_4  S_4  
     e(  3 -  3) =      2.40286  eV     1   --> B_1  D_3  S_3  
     e(  4 -  4) =      2.95316  eV     1   --> A_1  D_1  S_1  
     e(  5 -  5) =     11.16488  eV     1   --> A_1  D_1  S_1  
     e(  6 -  6) =     14.18154  eV     1   --> B_1  D_3  S_3  
     e(  7 -  7) =     14.65611  eV     1   --> B_2  D_4  S_4  

 **************************************************************************

 **************************************************************************

                    xk=(   0.42500,   1.00000,   0.00000  )

     Band symmetry, C_2v (mm2)  point group:

     e(  1 -  1) =    -10.20679  eV     1   --> A_1  D_1  S_1  
     e(  2 -  2) =      1.76006  eV     1   --> B_2  D_4  S_4  
     e(  3 -  3) =      2.35061  eV     1   --> B_1  D_3  S_3  
     e(  4 -  4) =      2.94201  eV     1   --> A_1  D_1  S_1  
     e(  5 -  5) =     11.22594  eV     1   --> A_1  D_1  S_1  
     e(  6 -  6) =     14.22127  eV     1   --> B_1  D_3  S_3  
     e(  7 -  7) =     14.62821  eV     1   --> B_2  D_4  S_4  

 **************************************************************************

 **************************************************************************

                    xk=(   0.43750,   1.00000,   0.00000  )

     Band symmetry, C_2v (mm2)  point group:

     e(  1 -  1) =    -10.20631  eV     1   --> A_1  D_1  S_1  
     e(  2 -  2) =      1.80541  eV     1   --> B_2  D_4  S_4  
     e(  3 -  3) =      2.29859  eV     1   --> B_1  D_3  S_3  
     e(  4 -  4) =      2.93252  eV     1   --> A_1  D_1  S_1  
     e(  5 -  5) =     11.27962  eV     1   --> A_1  D_1  S_1  
     e(  6 -  6) =     14.26018  eV     1   --> B_1  D_3  S_3  
     e(  7 -  7) =     14.59940  eV     1   --> B_2  D_4  S_4  

 **************************************************************************

 **************************************************************************

                    xk=(   0.45000,   1.00000,   0.00000  )

     Band symmetry, C_2v (mm2)  point group:

     e(  1 -  1) =    -10.20591  eV     1   --> A_1  D_1  S_1  
     e(  2 -  2) =      1.85165  eV     1   --> B_2  D_4  S_4  
     e(  3 -  3) =      2.24687  eV     1   --> B_1  D_3  S_3  
     e(  4 -  4) =      2.92471  eV     1   --> A_1  D_1  S_1  
     e(  5 -  5) =     11.32503  eV     1   --> A_1  D_1  S_1  
     e(  6 -  6) =     14.29824  eV     1   --> B_1  D_3  S_3  
     e(  7 -  7) =     14.56969  eV     1   --> B_2  D_4  S_4  

 **************************************************************************

 **************************************************************************

                    xk=(   0.46250,   1.00000,   0.00000  )

     Band symmetry, C_2v (mm2)  point group:

     e(  1 -  1) =    -10.20559  eV     1   --> A_1  D_1  S_1  
     e(  2 -  2) =      1.89869  eV     1   --> B_2  D_4  S_4  
     e(  3 -  3) =      2.19552  eV     1   --> B_1  D_3  S_3  
     e(  4 -  4) =      2.91861  eV     1   --> A_1  D_1  S_1  
     e(  5 -  5) =     11.36134  eV     1   --> A_1  D_1  S_1  
     e(  6 -  6) =     14.33540  eV     1   --> B_1  D_3  S_3  
     e(  7 -  7) =     14.53902  eV     1   --> B_2  D_4  S_4  

 **************************************************************************

 **************************************************************************

                    xk=(   0.47500,   1.00000,   0.00000  )

     Band symmetry, C_2v (mm2)  point group:

     e(  1 -  1) =    -10.20537  eV     1   --> A_1  D_1  S_1  
     e(  2 -  2) =      1.94652  eV     1   --> B_2  D_4  S_4  
     e(  3 -  3) =      2.14460  eV     1   --> B_1  D_3  S_3  
     e(  4 -  4) =      2.91424  eV     1   --> A_1  D_1  S_1  
     e(  5 -  5) =     11.38784  eV     1   --> A_1  D_1  S_1  
     e(  6 -  6) =     14.37167  eV     1   --> B_1  D_3  S_3  
     e(  7 -  7) =     14.50745  eV     1   --> B_2  D_4  S_4  

 **************************************************************************

 **************************************************************************

                    xk=(   0.48750,   1.00000,   0.00000  )

     Band symmetry, C_2v (mm2)  point group:

     e(  1 -  1) =    -10.20523  eV     1   --> A_1  D_1  S_1  
     e(  2 -  2) =      1.99508  eV     1   --> B_2  D_4  S_4  
     e(  3 -  3) =      2.09418  eV     1   --> B_1  D_3  S_3  
     e(  4 -  4) =      2.91162  eV     1   --> A_1  D_1  S_1  
     e(  5 -  5) =     11.40400  eV     1   --> A_1  D_1  S_1  
     e(  6 -  6) =     14.40701  eV     1   --> B_1  D_3  S_3  
     e(  7 -  7) =     14.47491  eV     1   --> B_2  D_4  S_4  

 **************************************************************************

 **************************************************************************

                    xk=(   0.50000,   1.00000,   0.00000  )

     point group D_2d (-42m)
     there are  5 classes
     the character table:

       E     2S4   C2    2C2'  2s_d 
A_1    1.00  1.00  1.00  1.00  1.00
A_2    1.00  1.00  1.00 -1.00 -1.00
B_1    1.00 -1.00  1.00  1.00 -1.00
B_2    1.00 -1.00  1.00 -1.00  1.00
E      2.00  0.00 -2.00  0.00  0.00

     the symmetry operations in each class and the name of the first element:

     E        1
                                                                 
     2S4      7    8
                                                                 
     C2       2
                                                                 
     2C2'     3    4
                                                                 
     2s_d     5    6
                                                                 

     Band symmetry, D_2d (-42m) point group:

     e(  1 -  1) =    -10.20518  eV     1   --> B_2  X_3  W_2  
     e(  2 -  3) =      2.04432  eV     2   --> E    X_5  W_3  
     e(  4 -  4) =      2.91075  eV     1   --> A_1  X_1  W_1  
     e(  5 -  5) =     11.40941  eV     1   --> A_1  X_1  W_1  
     e(  6 -  7) =     14.44143  eV     2   --> E    X_5  W_3  

 **************************************************************************

 **************************************************************************

                    xk=(   0.50625,   0.99375,   0.00000  )

     point group C_s (m)    
     there are  2 classes
     the character table:

       E     s    
A'     1.00  1.00
A''    1.00 -1.00

     the symmetry operations in each class and the name of the first element:

     E        1
                                                                 
     s        2
                                                                 

     Band symmetry, C_s (m)     point group:

     e(  1 -  1) =    -10.20526  eV     1   --> A'             
     e(  2 -  2) =      2.01979  eV     1   --> A''            
     e(  3 -  3) =      2.06805  eV     1   --> A'             
     e(  4 -  4) =      2.91226  eV     1   --> A'             
     e(  5 -  5) =     11.40838  eV     1   --> A'             
     e(  6 -  6) =     14.42170  eV     1   --> A'             
     e(  7 -  7) =     14.45831  eV     1   --> A''            

 **************************************************************************

 **************************************************************************

                    xk=(   0.51250,   0.98750,   0.00000  )

     Band symmetry, C_s (m)     point group:

     e(  1 -  1) =    -10.20546  eV     1   --> A'             
     e(  2 -  2) =      1.99575  eV     1   --> A''            
     e(  3 -  3) =      2.08952  eV     1   --> A'             
     e(  4 -  4) =      2.91693  eV     1   --> A'             
     e(  5 -  5) =     11.40527  eV     1   --> A'             
     e(  6 -  6) =     14.39679  eV     1   --> A'             
     e(  7 -  7) =     14.47500  eV     1   --> A''            

 **************************************************************************

 **************************************************************************

                    xk=(   0.51875,   0.98125,  -0.00000  )

     Band symmetry, C_s (m)     point group:

     e(  1 -  1) =    -10.20580  eV     1   --> A'             
     e(  2 -  2) =      1.97221  eV     1   --> A''            
     e(  3 -  3) =      2.10850  eV     1   --> A'             
     e(  4 -  4) =      2.92490  eV     1   --> A'             
     e(  5 -  5) =     11.40005  eV     1   --> A'             
     e(  6 -  6) =     14.36728  eV     1   --> A'             
     e(  7 -  7) =     14.49145  eV     1   --> A''            

 **************************************************************************

 **************************************************************************

                    xk=(   0.52500,   0.97500,  -0.00000  )

     Band symmetry, C_s (m)     point group:

     e(  1 -  1) =    -10.20625  eV     1   --> A'             
     e(  2 -  2) =      1.94920  eV     1   --> A''            
     e(  3 -  3) =      2.12486  eV     1   --> A'             
     e(  4 -  4) =      2.93632  eV     1   --> A'             
     e(  5 -  5) =     11.39278  eV     1   --> A'             
     e(  6 -  6) =     14.33398  eV     1   --> A'             
     e(  7 -  7) =     14.50769  eV     1   --> A''            

 **************************************************************************

 **************************************************************************

                    xk=(   0.53125,   0.96875,   0.00000  )

     Band symmetry, C_s (m)     point group:

     e(  1 -  1) =    -10.20681  eV     1   --> A'             
     e(  2 -  2) =      1.92670  eV     1   --> A''            
     e(  3 -  3) =      2.13851  eV     1   --> A'             
     e(  4 -  4) =      2.95118  eV     1   --> A'             
     e(  5 -  5) =     11.38344  eV     1   --> A'             
     e(  6 -  6) =     14.29766  eV     1   --> A'             
     e(  7 -  7) =     14.52365  eV     1   --> A''            

 **************************************************************************

 **************************************************************************

                    xk=(   0.53750,   0.96250,   0.00000  )

     Band symmetry, C_s (m)     point group:

     e(  1 -  1) =    -10.20748  eV     1   --> A'             
     e(  2 -  2) =      1.90474  eV     1   --> A''            
     e(  3 -  3) =      2.14947  eV     1   --> A'             
     e(  4 -  4) =      2.96944  eV     1   --> A'             
     e(  5 -  5) =     11.37207  eV     1   --> A'             
     e(  6 -  6) =     14.25909  eV     1   --> A'             
     e(  7 -  7) =     14.53935  eV     1   --> A''            

 **************************************************************************

 **************************************************************************

                    xk=(   0.54375,   0.95625,   0.00000  )

     Band symmetry, C_s (m)     point group:

     e(  1 -  1) =    -10.20823  eV     1   --> A'             
     e(  2 -  2) =      1.88332  eV     1   --> A''            
     e(  3 -  3) =      2.15783  eV     1   --> A'             
     e(  4 -  4) =      2.99095  eV     1   --> A'             
     e(  5 -  5) =     11.35871  eV     1   --> A'             
     e(  6 -  6) =     14.21896  eV     1   --> A'             
     e(  7 -  7) =     14.55477  eV     1   --> A''            

 **************************************************************************

 **************************************************************************

                    xk=(   0.55000,   0.95000,  -0.00000  )

     Band symmetry, C_s (m)     point group:

     e(  1 -  1) =    -10.20907  eV     1   --> A'             
     e(  2 -  2) =      1.86247  eV     1   --> A''            
     e(  3 -  3) =      2.16372  eV     1   --> A'             
     e(  4 -  4) =      3.01549  eV     1   --> A'             
     e(  5 -  5) =     11.34340  eV     1   --> A'             
     e(  6 -  6) =     14.17785  eV     1   --> A'             
     e(  7 -  7) =     14.56989  eV     1   --> A''            

 **************************************************************************

 **************************************************************************

                    xk=(   0.55625,   0.94375,  -0.00000  )

     Band symmetry, C_s (m)     point group:

     e(  1 -  1) =    -10.20998  eV     1   --> A'             
     e(  2 -  2) =      1.84217  eV     1   --> A''            
     e(  3 -  3) =      2.16736  eV     1   --> A'             
     e(  4 -  4) =      3.04280  eV     1   --> A'             
     e(  5 -  5) =     11.32622  eV     1   --> A'             
     e(  6 -  6) =     14.13629  eV     1   --> A'             
     e(  7 -  7) =     14.58469  eV     1   --> A''            

 **************************************************************************

 **************************************************************************

                    xk=(   0.56250,   0.93750,   0.00000  )

     Band symmetry, C_s (m)     point group:

     e(  1 -  1) =    -10.21096  eV     1   --> A'             
     e(  2 -  2) =      1.82244  eV     1   --> A''            
     e(  3 -  3) =      2.16899  eV     1   --> A'             
     e(  4 -  4) =      3.07258  eV     1   --> A'             
     e(  5 -  5) =     11.30723  eV     1   --> A'             
     e(  6 -  6) =     14.09470  eV     1   --> A'             
     e(  7 -  7) =     14.59915  eV     1   --> A''            

 **************************************************************************

 **************************************************************************

                    xk=(   0.56875,   0.93125,   0.00000  )

     Band symmetry, C_s (m)     point group:

     e(  1 -  1) =    -10.21199  eV     1   --> A'             
     e(  2 -  2) =      1.80329  eV     1   --> A''            
     e(  3 -  3) =      2.16884  eV     1   --> A'             
     e(  4 -  4) =      3.10449  eV     1   --> A'             
     e(  5 -  5) =     11.28653  eV     1   --> A'             
     e(  6 -  6) =     14.05342  eV     1   --> A'             
     e(  7 -  7) =     14.61327  eV     1   --> A''            

 **************************************************************************

 **************************************************************************

                    xk=(   0.57500,   0.92500,   0.00000  )

     Band symmetry, C_s (m)     point group:

     e(  1 -  1) =    -10.21307  eV     1   --> A'             
     e(  2 -  2) =      1.78471  eV     1   --> A''            
     e(  3 -  3) =      2.16716  eV     1   --> A'             
     e(  4 -  4) =      3.13821  eV     1   --> A'             
     e(  5 -  5) =     11.26420  eV     1   --> A'             
     e(  6 -  6) =     14.01275  eV     1   --> A'             
     e(  7 -  7) =     14.62701  eV     1   --> A''            

 **************************************************************************

 **************************************************************************

                    xk=(   0.58125,   0.91875,  -0.00000  )

     Band symmetry, C_s (m)     point group:

     e(  1 -  1) =    -10.21419  eV     1   --> A'             
     e(  2 -  2) =      1.76673  eV     1   --> A''            
     e(  3 -  3) =      2.16421  eV     1   --> A'             
     e(  4 -  4) =      3.17342  eV     1   --> A'             
     e(  5 -  5) =     11.24037  eV     1   --> A'             
     e(  6 -  6) =     13.97293  eV     1   --> A'             
     e(  7 -  7) =     14.64038  eV     1   --> A''            

 **************************************************************************

 **************************************************************************

                    xk=(   0.58750,   0.91250,   0.00000  )

     Band symmetry, C_s (m)     point group:

     e(  1 -  1) =    -10.21535  eV     1   --> A'             
     e(  2 -  2) =      1.74935  eV     1   --> A''            
     e(  3 -  3) =      2.16019  eV     1   --> A'             
     e(  4 -  4) =      3.20982  eV     1   --> A'             
     e(  5 -  5) =     11.21516  eV     1   --> A'             
     e(  6 -  6) =     13.93415  eV     1   --> A'             
     e(  7 -  7) =     14.65335  eV     1   --> A''            

 **************************************************************************

 **************************************************************************

                    xk=(   0.59375,   0.90625,   0.00000  )

     Band symmetry, C_s (m)     point group:

     e(  1 -  1) =    -10.21653  eV     1   --> A'             
     e(  2 -  2) =      1.73257  eV     1   --> A''            
     e(  3 -  3) =      2.15532  eV     1   --> A'             
     e(  4 -  4) =      3.24712  eV     1   --> A'             
     e(  5 -  5) =     11.18871  eV     1   --> A'             
     e(  6 -  6) =     13.89658  eV     1   --> A'             
     e(  7 -  7) =     14.66592  eV     1   --> A''            

 **************************************************************************

 **************************************************************************

                    xk=(   0.60000,   0.90000,   0.00000  )

     Band symmetry, C_s (m)     point group:

     e(  1 -  1) =    -10.21773  eV     1   --> A'             
     e(  2 -  2) =      1.71639  eV     1   --> A''            
     e(  3 -  3) =      2.14977  eV     1   --> A'             
     e(  4 -  4) =      3.28505  eV     1   --> A'             
     e(  5 -  5) =     11.16117  eV     1   --> A'             
     e(  6 -  6) =     13.86032  eV     1   --> A'             
     e(  7 -  7) =     14.67806  eV     1   --> A''            

 **************************************************************************

 **************************************************************************

                    xk=(   0.60625,   0.89375,   0.00000  )

     Band symmetry, C_s (m)     point group:

     e(  1 -  1) =    -10.21894  eV     1   --> A'             
     e(  2 -  2) =      1.70084  eV     1   --> A''            
     e(  3 -  3) =      2.14371  eV     1   --> A'             
     e(  4 -  4) =      3.32336  eV     1   --> A'             
     e(  5 -  5) =     11.13270  eV     1   --> A'             
     e(  6 -  6) =     13.82550  eV     1   --> A'             
     e(  7 -  7) =     14.68981  eV     1   --> A''            

 **************************************************************************

 **************************************************************************

                    xk=(   0.61250,   0.88750,  -0.00000  )

     Band symmetry, C_s (m)     point group:

     e(  1 -  1) =    -10.22015  eV     1   --> A'             
     e(  2 -  2) =      1.68591  eV     1   --> A''            
     e(  3 -  3) =      2.13727  eV     1   --> A'             
     e(  4 -  4) =      3.36179  eV     1   --> A'             
     e(  5 -  5) =     11.10347  eV     1   --> A'             
     e(  6 -  6) =     13.79217  eV     1   --> A'             
     e(  7 -  7) =     14.70112  eV     1   --> A''            

 **************************************************************************

 **************************************************************************

                    xk=(   0.61875,   0.88125,   0.00000  )

     Band symmetry, C_s (m)     point group:

     e(  1 -  1) =    -10.22135  eV     1   --> A'             
     e(  2 -  2) =      1.67161  eV     1   --> A''            
     e(  3 -  3) =      2.13057  eV     1   --> A'             
     e(  4 -  4) =      3.40014  eV     1   --> A'             
     e(  5 -  5) =     11.07365  eV     1   --> A'             
     e(  6 -  6) =     13.76036  eV     1   --> A'             
     e(  7 -  7) =     14.71198  eV     1   --> A''            

 **************************************************************************

 **************************************************************************

                    xk=(   0.62500,   0.87500,   0.00000  )

     Band symmetry, C_s (m)     point group:

     e(  1 -  1) =    -10.22255  eV     1   --> A'             
     e(  2 -  2) =      1.65793  eV     1   --> A''            
     e(  3 -  3) =      2.12373  eV     1   --> A'             
     e(  4 -  4) =      3.43820  eV     1   --> A'             
     e(  5 -  5) =     11.04343  eV     1   --> A'             
     e(  6 -  6) =     13.73017  eV     1   --> A'             
     e(  7 -  7) =     14.72239  eV     1   --> A''            

 **************************************************************************

 **************************************************************************

                    xk=(   0.63125,   0.86875,   0.00000  )

     Band symmetry, C_s (m)     point group:

     e(  1 -  1) =    -10.22373  eV     1   --> A'             
     e(  2 -  2) =      1.64490  eV     1   --> A''            
     e(  3 -  3) =      2.11682  eV     1   --> A'             
     e(  4 -  4) =      3.47576  eV     1   --> A'             
     e(  5 -  5) =     11.01300  eV     1   --> A'             
     e(  6 -  6) =     13.70158  eV     1   --> A'             
     e(  7 -  7) =     14.73235  eV     1   --> A''            

 **************************************************************************

 **************************************************************************

                    xk=(   0.63750,   0.86250,   0.00000  )

     Band symmetry, C_s (m)     point group:

     e(  1 -  1) =    -10.22489  eV     1   --> A'             
     e(  2 -  2) =      1.63251  eV     1   --> A''            
     e(  3 -  3) =      2.10995  eV     1   --> A'             
     e(  4 -  4) =      3.51265  eV     1   --> A'             
     e(  5 -  5) =     10.98256  eV     1   --> A'             
     e(  6 -  6) =     13.67460  eV     1   --> A'             
     e(  7 -  7) =     14.74185  eV     1   --> A''            

 **************************************************************************

 **************************************************************************

                    xk=(   0.64375,   0.85625,  -0.00000  )

     Band symmetry, C_s (m)     point group:

     e(  1 -  1) =    -10.22602  eV     1   --> A'             
     e(  2 -  2) =      1.62076  eV     1   --> A''            
     e(  3 -  3) =      2.10316  eV     1   --> A'             
     e(  4 -  4) =      3.54866  eV     1   --> A'             
     e(  5 -  5) =     10.95230  eV     1   --> A'             
     e(  6 -  6) =     13.64925  eV     1   --> A'             
     e(  7 -  7) =     14.75086  eV     1   --> A''            

 **************************************************************************

 **************************************************************************

                    xk=(   0.65000,   0.85000,   0.00000  )

     Band symmetry, C_s (m)     point group:

     e(  1 -  1) =    -10.22711  eV     1   --> A'             
     e(  2 -  2) =      1.60966  eV     1   --> A''            
     e(  3 -  3) =      2.09652  eV     1   --> A'             
     e(  4 -  4) =      3.58365  eV     1   --> A'             
     e(  5 -  5) =     10.92243  eV     1   --> A'             
     e(  6 -  6) =     13.62550  eV     1   --> A'             
     e(  7 -  7) =     14.75940  eV     1   --> A''            

 **************************************************************************

 **************************************************************************

                    xk=(   0.65625,   0.84375,   0.00000  )

[...]
     e(  4 -  4) =      3.74406  eV     1   --> A              
     e(  5 -  5) =     11.91780  eV     1   --> A              
     e(  6 -  6) =     12.79444  eV     1   --> B              
     e(  7 -  7) =     14.67633  eV     1   --> A              

 **************************************************************************

 **************************************************************************

                    xk=(   0.50000,   0.81250,   0.18750  )

     Band symmetry, C_2  (2)    point group:

     e(  1 -  1) =    -10.30148  eV     1   --> B              
     e(  2 -  2) =      1.08322  eV     1   --> A              
     e(  3 -  3) =      2.66369  eV     1   --> B              
     e(  4 -  4) =      3.80860  eV     1   --> A              
     e(  5 -  5) =     11.99146  eV     1   --> A              
     e(  6 -  6) =     12.65076  eV     1   --> B              
     e(  7 -  7) =     14.71082  eV     1   --> A              

 **************************************************************************

 **************************************************************************

                    xk=(   0.50000,   0.80000,   0.20000  )

     Band symmetry, C_2  (2)    point group:

     e(  1 -  1) =    -10.31272  eV     1   --> B              
     e(  2 -  2) =      1.01134  eV     1   --> A              
     e(  3 -  3) =      2.74330  eV     1   --> B              
     e(  4 -  4) =      3.87066  eV     1   --> A              
     e(  5 -  5) =     12.06931  eV     1   --> A              
     e(  6 -  6) =     12.50710  eV     1   --> B              
     e(  7 -  7) =     14.74785  eV     1   --> A              

 **************************************************************************

 **************************************************************************

                    xk=(   0.50000,   0.78750,   0.21250  )

     Band symmetry, C_2  (2)    point group:

     e(  1 -  1) =    -10.32420  eV     1   --> B              
     e(  2 -  2) =      0.94139  eV     1   --> A              
     e(  3 -  3) =      2.82651  eV     1   --> B              
     e(  4 -  4) =      3.93007  eV     1   --> A              
     e(  5 -  5) =     12.15100  eV     1   --> A              
     e(  6 -  6) =     12.36369  eV     1   --> B              
     e(  7 -  7) =     14.78757  eV     1   --> A              

 **************************************************************************

 **************************************************************************

                    xk=(   0.50000,   0.77500,   0.22500  )

     Band symmetry, C_2  (2)    point group:

     e(  1 -  1) =    -10.33584  eV     1   --> B              
     e(  2 -  2) =      0.87351  eV     1   --> A              
     e(  3 -  3) =      2.91297  eV     1   --> B              
     e(  4 -  4) =      3.98672  eV     1   --> A              
     e(  5 -  5) =     12.22069  eV     1   --> B              
     e(  6 -  6) =     12.23610  eV     1   --> A              
     e(  7 -  7) =     14.83011  eV     1   --> A              

 **************************************************************************

 **************************************************************************

                    xk=(   0.50000,   0.76250,   0.23750  )

     Band symmetry, C_2  (2)    point group:

     e(  1 -  1) =    -10.34758  eV     1   --> B              
     e(  2 -  2) =      0.80787  eV     1   --> A              
     e(  3 -  3) =      3.00237  eV     1   --> B              
     e(  4 -  4) =      4.04050  eV     1   --> A              
     e(  5 -  5) =     12.07831  eV     1   --> B              
     e(  6 -  6) =     12.32414  eV     1   --> A              
     e(  7 -  7) =     14.87569  eV     1   --> A              

 **************************************************************************

 **************************************************************************

                    xk=(   0.50000,   0.75000,   0.25000  )

     Band symmetry, C_2  (2)    point group:

     e(  1 -  1) =    -10.35932  eV     1   --> B              
     e(  2 -  2) =      0.74461  eV     1   --> A              
     e(  3 -  3) =      3.09436  eV     1   --> B              
     e(  4 -  4) =      4.09137  eV     1   --> A              
     e(  5 -  5) =     11.93679  eV     1   --> B              
     e(  6 -  6) =     12.41453  eV     1   --> A              
     e(  7 -  7) =     14.92455  eV     1   --> A              

 **************************************************************************

 **************************************************************************

                    xk=(   0.50000,   0.73750,   0.26250  )

     Band symmetry, C_2  (2)    point group:

     e(  1 -  1) =    -10.37101  eV     1   --> B              
     e(  2 -  2) =      0.68381  eV     1   --> A              
     e(  3 -  3) =      3.18847  eV     1   --> B              
     e(  4 -  4) =      4.13928  eV     1   --> A              
     e(  5 -  5) =     11.79635  eV     1   --> B              
     e(  6 -  6) =     12.50662  eV     1   --> A              
     e(  7 -  7) =     14.97692  eV     1   --> A              

 **************************************************************************

 **************************************************************************

                    xk=(   0.50000,   0.72500,   0.27500  )

     Band symmetry, C_2  (2)    point group:

     e(  1 -  1) =    -10.38258  eV     1   --> B              
     e(  2 -  2) =      0.62561  eV     1   --> A              
     e(  3 -  3) =      3.28432  eV     1   --> B              
     e(  4 -  4) =      4.18423  eV     1   --> A              
     e(  5 -  5) =     11.65732  eV     1   --> B              
     e(  6 -  6) =     12.59969  eV     1   --> A              
     e(  7 -  7) =     15.03311  eV     1   --> A              

 **************************************************************************

 **************************************************************************

                    xk=(   0.50000,   0.71250,   0.28750  )

     Band symmetry, C_2  (2)    point group:

     e(  1 -  1) =    -10.39395  eV     1   --> B              
     e(  2 -  2) =      0.57010  eV     1   --> A              
     e(  3 -  3) =      3.38143  eV     1   --> B              
     e(  4 -  4) =      4.22624  eV     1   --> A              
     e(  5 -  5) =     11.52003  eV     1   --> B              
     e(  6 -  6) =     12.69293  eV     1   --> A              
     e(  7 -  7) =     15.09341  eV     1   --> A              

 **************************************************************************

 **************************************************************************

                    xk=(   0.50000,   0.70000,   0.30000  )

     Band symmetry, C_2  (2)    point group:

     e(  1 -  1) =    -10.40506  eV     1   --> B              
     e(  2 -  2) =      0.51735  eV     1   --> A              
     e(  3 -  3) =      3.47928  eV     1   --> B              
     e(  4 -  4) =      4.26532  eV     1   --> A              
     e(  5 -  5) =     11.38486  eV     1   --> B              
     e(  6 -  6) =     12.78549  eV     1   --> A              
     e(  7 -  7) =     15.15811  eV     1   --> A              

 **************************************************************************

 **************************************************************************

                    xk=(   0.50000,   0.68750,   0.31250  )

     Band symmetry, C_2  (2)    point group:

     e(  1 -  1) =    -10.41583  eV     1   --> B              
     e(  2 -  2) =      0.46745  eV     1   --> A              
     e(  3 -  3) =      3.57731  eV     1   --> B              
     e(  4 -  4) =      4.30151  eV     1   --> A              
     e(  5 -  5) =     11.25225  eV     1   --> B              
     e(  6 -  6) =     12.87647  eV     1   --> A              
     e(  7 -  7) =     15.22744  eV     1   --> A              

 **************************************************************************

 **************************************************************************

                    xk=(   0.50000,   0.67500,   0.32500  )

     Band symmetry, C_2  (2)    point group:

     e(  1 -  1) =    -10.42622  eV     1   --> B              
     e(  2 -  2) =      0.42048  eV     1   --> A              
     e(  3 -  3) =      3.67490  eV     1   --> B              
     e(  4 -  4) =      4.33490  eV     1   --> A              
     e(  5 -  5) =     11.12271  eV     1   --> B              
     e(  6 -  6) =     12.96498  eV     1   --> A              
     e(  7 -  7) =     15.30157  eV     1   --> A              

 **************************************************************************

 **************************************************************************

                    xk=(   0.50000,   0.66250,   0.33750  )

     Band symmetry, C_2  (2)    point group:

     e(  1 -  1) =    -10.43616  eV     1   --> B              
     e(  2 -  2) =      0.37648  eV     1   --> A              
     e(  3 -  3) =      3.77141  eV     1   --> B              
     e(  4 -  4) =      4.36552  eV     1   --> A              
     e(  5 -  5) =     10.99681  eV     1   --> B              
     e(  6 -  6) =     13.05013  eV     1   --> A              
     e(  7 -  7) =     15.38051  eV     1   --> A              

 **************************************************************************

 **************************************************************************

                    xk=(   0.50000,   0.65000,   0.35000  )

     Band symmetry, C_2  (2)    point group:

     e(  1 -  1) =    -10.44560  eV     1   --> B              
     e(  2 -  2) =      0.33553  eV     1   --> A              
     e(  3 -  3) =      3.86610  eV     1   --> B              
     e(  4 -  4) =      4.39346  eV     1   --> A              
     e(  5 -  5) =     10.87516  eV     1   --> B              
     e(  6 -  6) =     13.13107  eV     1   --> A              
     e(  7 -  7) =     15.46412  eV     1   --> A              

 **************************************************************************

 **************************************************************************

                    xk=(   0.50000,   0.63750,   0.36250  )

     Band symmetry, C_2  (2)    point group:

     e(  1 -  1) =    -10.45448  eV     1   --> B              
     e(  2 -  2) =      0.29767  eV     1   --> A              
     e(  3 -  3) =      3.95818  eV     1   --> B              
     e(  4 -  4) =      4.41877  eV     1   --> A              
     e(  5 -  5) =     10.75846  eV     1   --> B              
     e(  6 -  6) =     13.20704  eV     1   --> A              
     e(  7 -  7) =     15.55197  eV     1   --> A              

 **************************************************************************

 **************************************************************************

                    xk=(   0.50000,   0.62500,   0.37500  )

     Band symmetry, C_2  (2)    point group:

     e(  1 -  1) =    -10.46276  eV     1   --> B              
     e(  2 -  2) =      0.26296  eV     1   --> A              
     e(  3 -  3) =      4.04685  eV     1   --> B              
     e(  4 -  4) =      4.44157  eV     1   --> A              
     e(  5 -  5) =     10.64750  eV     1   --> B              
     e(  6 -  6) =     13.27742  eV     1   --> A              
     e(  7 -  7) =     15.64338  eV     1   --> A              

 **************************************************************************

 **************************************************************************

                    xk=(   0.50000,   0.61250,   0.38750  )

     Band symmetry, C_2  (2)    point group:

     e(  1 -  1) =    -10.47038  eV     1   --> B              
     e(  2 -  2) =      0.23144  eV     1   --> A              
     e(  3 -  3) =      4.13124  eV     1   --> B              
     e(  4 -  4) =      4.46194  eV     1   --> A              
     e(  5 -  5) =     10.54309  eV     1   --> B              
     e(  6 -  6) =     13.34173  eV     1   --> A              
     e(  7 -  7) =     15.73728  eV     1   --> A              

 **************************************************************************

 **************************************************************************

                    xk=(   0.50000,   0.60000,   0.40000  )

     Band symmetry, C_2  (2)    point group:

     e(  1 -  1) =    -10.47731  eV     1   --> B              
     e(  2 -  2) =      0.20313  eV     1   --> A              
     e(  3 -  3) =      4.21039  eV     1   --> B              
     e(  4 -  4) =      4.47991  eV     1   --> A              
     e(  5 -  5) =     10.44612  eV     1   --> B              
     e(  6 -  6) =     13.39953  eV     1   --> A              
     e(  7 -  7) =     15.83216  eV     1   --> A              

 **************************************************************************

 **************************************************************************

                    xk=(   0.50000,   0.58750,   0.41250  )

     Band symmetry, C_2  (2)    point group:

     e(  1 -  1) =    -10.48352  eV     1   --> B              
     e(  2 -  2) =      0.17809  eV     1   --> A              
     e(  3 -  3) =      4.28336  eV     1   --> B              
     e(  4 -  4) =      4.49558  eV     1   --> A              
     e(  5 -  5) =     10.35750  eV     1   --> B              
     e(  6 -  6) =     13.45063  eV     1   --> A              
     e(  7 -  7) =     15.92614  eV     1   --> A              

 **************************************************************************

 **************************************************************************

                    xk=(   0.50000,   0.57500,   0.42500  )

     Band symmetry, C_2  (2)    point group:

     e(  1 -  1) =    -10.48897  eV     1   --> B              
     e(  2 -  2) =      0.15632  eV     1   --> A              
     e(  3 -  3) =      4.34915  eV     1   --> B              
     e(  4 -  4) =      4.50900  eV     1   --> A              
     e(  5 -  5) =     10.27818  eV     1   --> B              
     e(  6 -  6) =     13.49482  eV     1   --> A              
     e(  7 -  7) =     16.01687  eV     1   --> A              

 **************************************************************************

 **************************************************************************

                    xk=(   0.50000,   0.56250,   0.43750  )

     Band symmetry, C_2  (2)    point group:

     e(  1 -  1) =    -10.49362  eV     1   --> B              
     e(  2 -  2) =      0.13786  eV     1   --> A              
     e(  3 -  3) =      4.40681  eV     1   --> B              
     e(  4 -  4) =      4.52026  eV     1   --> A              
     e(  5 -  5) =     10.20908  eV     1   --> B              
     e(  6 -  6) =     13.53210  eV     1   --> A              
     e(  7 -  7) =     16.10161  eV     1   --> A              

 **************************************************************************

 **************************************************************************

                    xk=(   0.50000,   0.55000,   0.45000  )

     Band symmetry, C_2  (2)    point group:

     e(  1 -  1) =    -10.49747  eV     1   --> B              
     e(  2 -  2) =      0.12273  eV     1   --> A              
     e(  3 -  3) =      4.45547  eV     1   --> B              
     e(  4 -  4) =      4.52939  eV     1   --> A              
     e(  5 -  5) =     10.15111  eV     1   --> B              
     e(  6 -  6) =     13.56247  eV     1   --> A              
     e(  7 -  7) =     16.17728  eV     1   --> A              

 **************************************************************************

 **************************************************************************

                    xk=(   0.50000,   0.53750,   0.46250  )

     Band symmetry, C_2  (2)    point group:

     e(  1 -  1) =    -10.50048  eV     1   --> B              
     e(  2 -  2) =      0.11095  eV     1   --> A              
     e(  3 -  3) =      4.49427  eV     1   --> B              
     e(  4 -  4) =      4.53645  eV     1   --> A              
     e(  5 -  5) =     10.10508  eV     1   --> B              
     e(  6 -  6) =     13.58600  eV     1   --> A              
     e(  7 -  7) =     16.24066  eV     1   --> A              

 **************************************************************************

 **************************************************************************

                    xk=(   0.50000,   0.52500,   0.47500  )

     Band symmetry, C_2  (2)    point group:

     e(  1 -  1) =    -10.50264  eV     1   --> B              
     e(  2 -  2) =      0.10252  eV     1   --> A              
     e(  3 -  3) =      4.52252  eV     1   --> B              
     e(  4 -  4) =      4.54146  eV     1   --> A              
     e(  5 -  5) =     10.07166  eV     1   --> B              
     e(  6 -  6) =     13.60274  eV     1   --> A              
     e(  7 -  7) =     16.28866  eV     1   --> A              

 **************************************************************************

 **************************************************************************

                    xk=(   0.50000,   0.51250,   0.48750  )

     Band symmetry, C_2  (2)    point group:

     e(  1 -  1) =    -10.50394  eV     1   --> B              
     e(  2 -  2) =      0.09746  eV     1   --> A              
     e(  3 -  3) =      4.53970  eV     1   --> B              
     e(  4 -  4) =      4.54446  eV     1   --> A              
     e(  5 -  5) =     10.05139  eV     1   --> B              
     e(  6 -  6) =     13.61276  eV     1   --> A              
     e(  7 -  7) =     16.31868  eV     1   -->   ?

 **************************************************************************

 **************************************************************************

                    xk=(   0.50000,   0.50000,   0.50000  )

     point group D_3d (-3m) 
     there are  6 classes
     the character table:

       E     2C3   3C2'  i     2S6   3s_d 
A_1g   1.00  1.00  1.00  1.00  1.00  1.00
A_2g   1.00  1.00 -1.00  1.00  1.00 -1.00
E_g    2.00 -1.00  0.00  2.00 -1.00  0.00
A_1u   1.00  1.00  1.00 -1.00 -1.00 -1.00
A_2u   1.00  1.00 -1.00 -1.00 -1.00  1.00
E_u    2.00 -1.00  0.00 -2.00  1.00  0.00

     the symmetry operations in each class and the name of the first element:

     E        1
                                                                 
     2C3      5    6
                                                                 
     3C2'     2    4    3
                                                                 
     i        7
                                                                 
     2S6     11   12
                                                                 
     3s_d     8   10    9
                                                                 

     Band symmetry, D_3d (-3m)  point group:

     e(  1 -  1) =    -10.50437  eV     1   --> A_2u L_2'      
     e(  2 -  2) =      0.09576  eV     1   --> A_1g L_1       
     e(  3 -  4) =      4.54541  eV     2   --> E_g  L_3       
     e(  5 -  5) =     10.04459  eV     1   --> A_2u L_2'      
     e(  6 -  6) =     13.61603  eV     1   --> A_1g L_1       
     e(  7 -  7) =     16.32886  eV     1   -->   ?

 **************************************************************************

     BANDS        :     17.31s CPU     17.57s WALL


   This run was terminated on:  12:16:33  16Dec2024            

=------------------------------------------------------------------------------=
   JOB DONE.
=------------------------------------------------------------------------------=
