
     Program PWSCF v.7.3 starts on 16Dec2024 at 11: 6:55 

     This program is part of the open-source Quantum ESPRESSO suite
     for quantum simulation of materials; please cite
         "P. Giannozzi et al., J. Phys.:Condens. Matter 21 395502 (2009);
         "P. Giannozzi et al., J. Phys.:Condens. Matter 29 465901 (2017);
         "P. Giannozzi et al., J. Chem. Phys. 152 154105 (2020);
          URL http://www.quantum-espresso.org", 
     in publications or presentations arising from this work. More details at
     http://www.quantum-espresso.org/quote

     Serial version
     5154 MiB available memory on the printing compute node when the environment starts

     Waiting for input...
     Reading input from standard input

     Current dimensions of program PWSCF are:
     Max number of different atomic species (ntypx) = 10
     Max number of k-points (npk) =  40000
     Max angular momentum in pseudopotentials (lmaxx) =  4
     Message from routine iosys:
     BEWARE:  force calculation with tetrahedra (not recommanded)
     Message from routine iosys:
     BEWARE: stress calculation with tetrahedra (not recommanded)
     [opt_tetra]  Optimized tetrahedron method is used.


     G-vector sticks info
     --------------------
     sticks:   dense  smooth     PW     G-vecs:    dense   smooth      PW
     Sum         745     745    223                13107    13107    2229

     Using Slab Decomposition



     bravais-lattice index     =            2
     lattice parameter (alat)  =       8.1444  a.u.
     unit-cell volume          =     135.0571 (a.u.)^3
     number of atoms/cell      =            2
     number of atomic types    =            2
     number of electrons       =         9.00
     number of Kohn-Sham states=            9
     kinetic-energy cutoff     =      80.0000  Ry
     charge density cutoff     =     320.0000  Ry
     scf convergence threshold =      1.0E-06
     mixing beta               =       0.7000
     number of iterations used =            8  plain     mixing
     energy convergence thresh.=      1.0E-04
     force convergence thresh. =      1.0E-03
     press convergence thresh. =      5.0E-01
     Exchange-correlation= PBE
                           (   1   4   3   4   0   0   0)
     nstep                     =           50


     celldm(1)=   8.144400  celldm(2)=   0.000000  celldm(3)=   0.000000
     celldm(4)=   0.000000  celldm(5)=   0.000000  celldm(6)=   0.000000

     crystal axes: (cart. coord. in units of alat)
               a(1) = (  -0.500000   0.000000   0.500000 )  
               a(2) = (   0.000000   0.500000   0.500000 )  
               a(3) = (  -0.500000   0.500000   0.000000 )  

     reciprocal axes: (cart. coord. in units 2 pi/alat)
               b(1) = ( -1.000000 -1.000000  1.000000 )  
               b(2) = (  1.000000  1.000000  1.000000 )  
               b(3) = ( -1.000000  1.000000 -1.000000 )  


     PseudoPot. # 1 for Al read from file:
     ./PSEUDO/Al_ONCV_PBE_sr.upf
     MD5 check sum: 71949a6c272e6faf888e318530e21af5
     Pseudo is Norm-conserving + core correction, Zval =  3.0
     Generated using ONCVPSP code by D. R. Hamann
     Using radial grid of 1876 points,  6 beta functions with: 
                l(1) =   0
                l(2) =   0
                l(3) =   1
                l(4) =   1
                l(5) =   2
                l(6) =   2

     PseudoPot. # 2 for O  read from file:
     ./PSEUDO/O_ONCV_PBE_sr.upf
     MD5 check sum: b0122293cc47a814ad0627188f9a6d95
     Pseudo is Norm-conserving + core correction, Zval =  6.0
     Generated using ONCVPSP code by D. R. Hamann
     Using radial grid of  936 points,  5 beta functions with: 
                l(1) =   0
                l(2) =   0
                l(3) =   1
                l(4) =   1
                l(5) =   2

     atomic species   valence    mass     pseudopotential
     Al                3.00    26.98200     Al( 1.00)
     O                 6.00    15.99900     O ( 1.00)

     48 Sym. Ops., with inversion, found



   Cartesian axes

     site n.     atom                  positions (alat units)
         1        Al     tau(   1) = (   0.0000000   0.0000000   0.0000000  )
         2        O      tau(   2) = (  -0.5000000   0.5000000   0.5000000  )

     number of k points=    29 (tetrahedron method)
                       cart. coord. in units 2pi/alat
        k(    1) = (   0.0000000   0.0000000   0.0000000), wk =   0.0039062
        k(    2) = (  -0.1250000   0.1250000  -0.1250000), wk =   0.0312500
        k(    3) = (  -0.2500000   0.2500000  -0.2500000), wk =   0.0312500
        k(    4) = (  -0.3750000   0.3750000  -0.3750000), wk =   0.0312500
        k(    5) = (   0.5000000  -0.5000000   0.5000000), wk =   0.0156250
        k(    6) = (   0.0000000   0.2500000   0.0000000), wk =   0.0234375
        k(    7) = (  -0.1250000   0.3750000  -0.1250000), wk =   0.0937500
        k(    8) = (  -0.2500000   0.5000000  -0.2500000), wk =   0.0937500
        k(    9) = (   0.6250000  -0.3750000   0.6250000), wk =   0.0937500
        k(   10) = (   0.5000000  -0.2500000   0.5000000), wk =   0.0937500
        k(   11) = (   0.3750000  -0.1250000   0.3750000), wk =   0.0937500
        k(   12) = (   0.2500000   0.0000000   0.2500000), wk =   0.0468750
        k(   13) = (   0.0000000   0.5000000   0.0000000), wk =   0.0234375
        k(   14) = (  -0.1250000   0.6250000  -0.1250000), wk =   0.0937500
        k(   15) = (   0.7500000  -0.2500000   0.7500000), wk =   0.0937500
        k(   16) = (   0.6250000  -0.1250000   0.6250000), wk =   0.0937500
        k(   17) = (   0.5000000   0.0000000   0.5000000), wk =   0.0468750
        k(   18) = (   0.0000000   0.7500000   0.0000000), wk =   0.0234375
        k(   19) = (   0.8750000  -0.1250000   0.8750000), wk =   0.0937500
        k(   20) = (   0.7500000   0.0000000   0.7500000), wk =   0.0468750
        k(   21) = (   0.0000000  -1.0000000   0.0000000), wk =   0.0117188
        k(   22) = (  -0.2500000   0.5000000   0.0000000), wk =   0.0937500
        k(   23) = (   0.6250000  -0.3750000   0.8750000), wk =   0.1875000
        k(   24) = (   0.5000000  -0.2500000   0.7500000), wk =   0.0937500
        k(   25) = (   0.7500000  -0.2500000   1.0000000), wk =   0.0937500
        k(   26) = (   0.6250000  -0.1250000   0.8750000), wk =   0.1875000
        k(   27) = (   0.5000000   0.0000000   0.7500000), wk =   0.0937500
        k(   28) = (  -0.2500000  -1.0000000   0.0000000), wk =   0.0468750
        k(   29) = (  -0.5000000  -1.0000000   0.0000000), wk =   0.0234375

     Dense  grid:    13107 G-vectors     FFT dimensions: (  36,  36,  36)

     Estimated max dynamical RAM per process >      23.21 MB

     Initial potential from superposition of free atoms

     starting charge       8.9975, renormalised to       9.0000
     Starting wfcs are    8 randomized atomic wfcs +    1 random wfcs

     total cpu time spent up to now is        1.2 secs

     Self-consistent Calculation

     iteration #  1     ecut=    80.00 Ry     beta= 0.70
     Davidson diagonalization with overlap
     ethr =  1.00E-02,  avg # of iterations =  4.9

     total cpu time spent up to now is        2.8 secs

     total energy              =     -37.56223722 Ry
     estimated scf accuracy    <       0.31227404 Ry

     iteration #  2     ecut=    80.00 Ry     beta= 0.70
     Davidson diagonalization with overlap
     ethr =  3.47E-03,  avg # of iterations =  2.1

     total cpu time spent up to now is        4.0 secs

     total energy              =     -37.63209256 Ry
     estimated scf accuracy    <       0.44266349 Ry

     iteration #  3     ecut=    80.00 Ry     beta= 0.70
     Davidson diagonalization with overlap
     ethr =  3.47E-03,  avg # of iterations =  1.7

     total cpu time spent up to now is        5.0 secs

     total energy              =     -37.71298350 Ry
     estimated scf accuracy    <       0.00110800 Ry

     iteration #  4     ecut=    80.00 Ry     beta= 0.70
     Davidson diagonalization with overlap
     ethr =  1.23E-05,  avg # of iterations =  4.6

     total cpu time spent up to now is        6.2 secs

     total energy              =     -37.71375462 Ry
     estimated scf accuracy    <       0.00031634 Ry

     iteration #  5     ecut=    80.00 Ry     beta= 0.70
     Davidson diagonalization with overlap
     ethr =  3.51E-06,  avg # of iterations =  1.3

     total cpu time spent up to now is        7.1 secs

     total energy              =     -37.71376085 Ry
     estimated scf accuracy    <       0.00001746 Ry

     iteration #  6     ecut=    80.00 Ry     beta= 0.70
     Davidson diagonalization with overlap
     ethr =  1.94E-07,  avg # of iterations =  2.0

     total cpu time spent up to now is        8.1 secs

     total energy              =     -37.71376656 Ry
     estimated scf accuracy    <       0.00000582 Ry

     iteration #  7     ecut=    80.00 Ry     beta= 0.70
     Davidson diagonalization with overlap
     ethr =  6.46E-08,  avg # of iterations =  1.2

     total cpu time spent up to now is        9.1 secs

     End of self-consistent calculation

          k = 0.0000 0.0000 0.0000 (  1639 PWs)   bands (ev):

   -11.0227   6.0580   6.0580   6.0580   7.8389  20.3680  24.1144  24.1144
    24.1144

          k =-0.1250 0.1250-0.1250 (  1624 PWs)   bands (ev):

   -10.8568   4.6457   5.9737   5.9737   9.1647  18.6457  20.4428  20.4429
    22.8579

          k =-0.2500 0.2500-0.2500 (  1636 PWs)   bands (ev):

   -10.4213   2.7587   5.7813   5.7813  10.7197  16.8391  19.6707  19.6707
    23.2254

          k =-0.3750 0.3750-0.3750 (  1634 PWs)   bands (ev):

    -9.9218   1.2939   5.6024   5.6024  11.5540  16.1078  18.7534  18.7534
    22.8361

          k = 0.5000-0.5000 0.5000 (  1622 PWs)   bands (ev):

    -9.6897   0.7243   5.5319   5.5319  11.7343  16.0139  18.4161  18.4161
    22.7821

          k = 0.0000 0.2500 0.0000 (  1623 PWs)   bands (ev):

   -10.8028   4.5674   5.7917   5.7917   9.5449  18.4792  20.3416  20.3416
    20.5443

          k =-0.1250 0.3750-0.1250 (  1627 PWs)   bands (ev):

   -10.4599   3.2123   5.5384   5.5613  10.8864  17.0002  18.5657  20.1315
    21.2393

          k =-0.2500 0.5000-0.2500 (  1639 PWs)   bands (ev):

    -9.9792   1.8107   5.2081   5.3651  12.0201  15.9821  17.5889  19.4168
    22.4972

          k = 0.6250-0.3750 0.6250 (  1625 PWs)   bands (ev):

    -9.6463   1.0163   4.8833   5.3590  12.5113  15.5577  17.4607  18.8334
    23.6850

          k = 0.5000-0.2500 0.5000 (  1626 PWs)   bands (ev):

    -9.7219   1.1924   4.7708   5.5203  12.4806  15.7092  17.4640  18.7796
    24.4924

          k = 0.3750-0.1250 0.3750 (  1630 PWs)   bands (ev):

   -10.1415   2.2298   4.9631   5.7676  11.7622  16.4045  17.8535  19.3994
    23.0196

          k = 0.2500 0.0000 0.2500 (  1622 PWs)   bands (ev):

   -10.6014   3.6056   5.4586   5.9617  10.3672  17.5540  19.0979  20.6985
    21.3509

          k = 0.0000 0.5000 0.0000 (  1636 PWs)   bands (ev):

   -10.2395   2.9161   5.2086   5.2086  11.5253  16.2149  17.2507  20.5453
    20.5453

          k =-0.1250 0.6250-0.1250 (  1637 PWs)   bands (ev):

    -9.8599   2.1527   4.7069   4.9847  12.2391  15.5556  16.4436  20.3776
    21.0542

          k = 0.7500-0.2500 0.7500 (  1633 PWs)   bands (ev):

    -9.5326   1.6595   3.8976   4.9748  12.9674  15.1367  16.6278  19.8095
    21.7193

          k = 0.6250-0.1250 0.6250 (  1633 PWs)   bands (ev):

    -9.4856   1.6828   3.3836   5.1826  13.8139  14.7046  16.6936  19.3523
    22.9774

          k = 0.5000 0.0000 0.5000 (  1624 PWs)   bands (ev):

    -9.7535   1.9169   3.8048   5.5087  13.3078  15.6369  16.3837  19.2342
    24.2766

          k = 0.0000 0.7500 0.0000 (  1632 PWs)   bands (ev):

    -9.6223   1.8758   4.6923   4.6923  11.6517  14.7801  16.6657  20.9421
    20.9421

          k = 0.8750-0.1250 0.8750 (  1640 PWs)   bands (ev):

    -9.4051   1.7325   4.0191   4.6285  11.7772  14.7939  16.9284  20.7579
    20.9634

          k = 0.7500 0.0000 0.7500 (  1638 PWs)   bands (ev):

    -9.3491   2.1692   2.8272   4.8201  12.7069  15.2050  16.8653  20.1071
    21.1277

          k = 0.0000-1.0000 0.0000 (  1660 PWs)   bands (ev):

    -9.3478   1.5326   4.4941   4.4941  11.0974  14.2956  17.2567  21.1504
    21.1504

          k =-0.2500 0.5000 0.0000 (  1640 PWs)   bands (ev):

   -10.0948   2.4475   4.7445   5.4653  12.0779  16.3165  16.8854  19.8776
    21.6990

          k = 0.6250-0.3750 0.8750 (  1632 PWs)   bands (ev):

    -9.6892   1.7264   4.1301   5.1869  13.2128  15.3724  16.5240  19.2770
    23.0533

          k = 0.5000-0.2500 0.7500 (  1634 PWs)   bands (ev):

    -9.5062   1.4138   3.9260   5.0401  13.7535  14.7062  16.8376  19.0134
    24.1610

          k = 0.7500-0.2500 1.0000 (  1634 PWs)   bands (ev):

    -9.5587   1.9048   4.1261   4.6159  12.6080  15.3916  16.2054  19.7933
    21.8548

          k = 0.6250-0.1250 0.8750 (  1631 PWs)   bands (ev):

    -9.3744   2.0671   3.2188   4.4571  13.3119  15.3911  16.5036  18.8982
    22.7890

          k = 0.5000 0.0000 0.7500 (  1639 PWs)   bands (ev):

    -9.4323   2.1075   3.0329   4.7520  14.1565  14.8528  16.3306  18.9215
    24.0542

          k =-0.2500-1.0000 0.0000 (  1636 PWs)   bands (ev):

    -9.3282   1.8553   3.8915   4.1350  12.1697  15.0533  17.0273  19.4995
    21.9779

          k =-0.5000-1.0000 0.0000 (  1628 PWs)   bands (ev):

    -9.3084   2.7477   2.7477   3.8257  13.6172  16.2872  16.2872  17.6546
    24.7694

     the Fermi energy is    12.5921 ev

!    total energy              =     -37.71376766 Ry
     estimated scf accuracy    <          6.4E-09 Ry

     The total energy is the sum of the following terms:
     one-electron contribution =      -6.65379224 Ry
     hartree contribution      =       9.69631389 Ry
     xc contribution           =     -10.60683973 Ry
     ewald contribution        =     -30.14944958 Ry

     convergence has been achieved in   7 iterations

     Forces acting on atoms (cartesian axes, Ry/au):

     atom    1 type  1   force =     0.00000000   -0.00000000    0.00000000
     atom    2 type  2   force =     0.00000000    0.00000000   -0.00000000

     Total force =     0.000000     Total SCF correction =     0.000000


     Computing stress (Cartesian axis) and pressure

          total   stress  (Ry/bohr**3)                   (kbar)     P=      185.21
   0.00125906  -0.00000000  -0.00000000          185.21       -0.00       -0.00
  -0.00000000   0.00125906   0.00000000           -0.00      185.21        0.00
  -0.00000000   0.00000000   0.00125906           -0.00        0.00      185.21


     BFGS Geometry Optimization
     Energy error            =      0.0E+00 Ry
     Gradient error          =      2.5E-32 Ry/Bohr
     Cell gradient error     =      1.9E+02 kbar

     number of scf cycles    =   1
     number of bfgs steps    =   0

     enthalpy           new  =     -37.7137676605 Ry

     new trust radius        =       0.0731600400 bohr
     new conv_thr            =       0.0000010000 Ry

     new unit-cell volume =    148.21604 a.u.^3 (    21.96335 Ang^3 )
     density =      3.24958 g/cm^3

CELL_PARAMETERS (alat=  8.14440000)
  -0.515738209   0.000000000   0.515738209
  -0.000000000   0.515738209   0.515738209
  -0.515738209   0.515738209   0.000000000

ATOMIC_POSITIONS (crystal)
Al               0.0000000000        0.0000000000       -0.0000000000
O                0.5000000000        0.5000000000        0.5000000000



     Writing config-only to output data dir ./tmp/AlO.save/ :
     XML data file
     NEW-OLD atomic charge density approx. for the potential

     total cpu time spent up to now is       10.3 secs

     Self-consistent Calculation

     iteration #  1     ecut=    80.00 Ry     beta= 0.70
     Davidson diagonalization with overlap
     ethr =  1.00E-06,  avg # of iterations =  6.6

     total cpu time spent up to now is       12.5 secs

     total energy              =     -37.72251707 Ry
     estimated scf accuracy    <       0.00009017 Ry

     iteration #  2     ecut=    80.00 Ry     beta= 0.70
     Davidson diagonalization with overlap
     ethr =  1.00E-06,  avg # of iterations =  1.5

     total cpu time spent up to now is       13.4 secs

     total energy              =     -37.72251968 Ry
     estimated scf accuracy    <       0.00004904 Ry

     iteration #  3     ecut=    80.00 Ry     beta= 0.70
     Davidson diagonalization with overlap
     ethr =  5.45E-07,  avg # of iterations =  1.9

     total cpu time spent up to now is       14.2 secs

     total energy              =     -37.72253241 Ry
     estimated scf accuracy    <       0.00000788 Ry

     iteration #  4     ecut=    80.00 Ry     beta= 0.70
     Davidson diagonalization with overlap
     ethr =  8.75E-08,  avg # of iterations =  1.0

     total cpu time spent up to now is       15.1 secs

     End of self-consistent calculation

          k = 0.0000 0.0000 0.0000 (  1639 PWs)   bands (ev):

   -11.4827   5.1397   5.1397   5.1397   6.1397  18.9609  21.7011  21.7012
    21.7012

          k =-0.1212 0.1212-0.1212 (  1624 PWs)   bands (ev):

   -11.3422   3.6729   5.0691   5.0691   7.5646  17.1925  18.8828  18.8828
    20.9090

          k =-0.2424 0.2424-0.2424 (  1636 PWs)   bands (ev):

   -10.9773   1.9657   4.9075   4.9075   9.1006  15.2636  17.9066  17.9066
    21.1253

          k =-0.3636 0.3636-0.3636 (  1634 PWs)   bands (ev):

   -10.5670   0.6833   4.7570   4.7570  10.0438  14.2541  16.9926  16.9926
    20.8612

          k = 0.4847-0.4847 0.4847 (  1622 PWs)   bands (ev):

   -10.3799   0.1934   4.6977   4.6977  10.3123  13.9968  16.6646  16.6646
    20.8554

          k = 0.0000 0.2424 0.0000 (  1623 PWs)   bands (ev):

   -11.2965   3.5851   4.9025   4.9025   7.9391  17.2023  18.5713  18.6918
    18.6918

          k =-0.1212 0.3636-0.1212 (  1627 PWs)   bands (ev):

   -11.0089   2.3685   4.6793   4.7022   9.2264  15.6141  16.7766  18.3335
    19.4717

          k =-0.2424 0.4847-0.2424 (  1639 PWs)   bands (ev):

   -10.6124   1.1447   4.3928   4.5322  10.3948  14.2702  15.9569  17.5923
    20.6027

          k = 0.6059-0.3636 0.6059 (  1625 PWs)   bands (ev):

   -10.3434   0.4649   4.0992   4.5361  11.0253  13.5900  15.8162  17.0277
    21.6943

          k = 0.4847-0.2424 0.4847 (  1626 PWs)   bands (ev):

   -10.4041   0.6135   3.9930   4.6860  10.9601  13.7694  15.8281  16.9757
    22.4205

          k = 0.3636-0.1212 0.3636 (  1630 PWs)   bands (ev):

   -10.7455   1.5023   4.1640   4.9049  10.1108  14.7831  16.1328  17.5628
    21.4075

          k = 0.2424 0.0000 0.2424 (  1622 PWs)   bands (ev):

   -11.1273   2.7141   4.6071   5.0688   8.7288  16.1628  17.2624  18.7674
    19.8822

          k = 0.0000 0.4847 0.0000 (  1636 PWs)   bands (ev):

   -10.8252   2.1233   4.3775   4.3775   9.8085  15.0815  15.4504  18.6290
    18.6290

          k =-0.1212 0.6059-0.1212 (  1637 PWs)   bands (ev):

   -10.5132   1.4790   3.9285   4.1775  10.4827  14.2507  14.7978  18.4091
    19.0815

          k = 0.7271-0.2424 0.7271 (  1633 PWs)   bands (ev):

   -10.2491   1.0758   3.1906   4.1764  11.2509  13.5129  15.0499  17.8687
    19.7937

          k = 0.6059-0.1212 0.6059 (  1633 PWs)   bands (ev):

   -10.2119   1.0940   2.7233   4.3741  12.2314  12.8363  15.0730  17.4455
    21.0955

          k = 0.4847 0.0000 0.4847 (  1624 PWs)   bands (ev):

   -10.4280   1.2520   3.1196   4.6744  11.6073  13.8026  14.8753  17.3508
    22.6234

          k = 0.0000 0.7271 0.0000 (  1632 PWs)   bands (ev):

   -10.3196   1.2841   3.9073   3.9073   9.8989  13.7356  14.8884  18.8575
    18.8575

          k = 0.8483-0.1212 0.8483 (  1640 PWs)   bands (ev):

   -10.1451   1.1980   3.2822   3.8517  10.0288  13.6524  15.1545  18.6741
    18.8885

          k = 0.7271 0.0000 0.7271 (  1638 PWs)   bands (ev):

   -10.1011   1.6220   2.1609   4.0345  10.9731  13.7283  15.1499  18.0982
    19.2205

          k = 0.0000-0.9695 0.0000 (  1660 PWs)   bands (ev):

   -10.0990   1.0338   3.7256   3.7256   9.3618  13.2810  15.4399  19.0028
    19.0028

          k =-0.2424 0.4847 0.0000 (  1640 PWs)   bands (ev):

   -10.7063   1.7029   3.9660   4.6231  10.3556  14.9921  15.0833  17.9620
    19.9192

          k = 0.6059-0.3636 0.8483 (  1632 PWs)   bands (ev):

   -10.3758   1.1014   3.4103   4.3729  11.5020  13.6218  15.0133  17.3784
    21.1827

          k = 0.4847-0.2424 0.7271 (  1634 PWs)   bands (ev):

   -10.2290   0.8484   3.2224   4.2377  12.2253  12.7797  15.2296  17.1386
    22.2856

          k = 0.7271-0.2424 0.9695 (  1634 PWs)   bands (ev):

   -10.2689   1.3053   3.4038   3.8317  10.8147  14.1554  14.4777  17.7871
    19.8496

          k = 0.6059-0.1212 0.8483 (  1631 PWs)   bands (ev):

   -10.1214   1.4902   2.5660   3.6839  11.5044  13.8611  14.8917  16.9721
    20.8186

          k = 0.4847 0.0000 0.7271 (  1639 PWs)   bands (ev):

   -10.1683   1.4873   2.4146   3.9656  12.2673  13.2586  14.7794  17.0220
    22.1167

          k =-0.2424-0.9695 0.0000 (  1636 PWs)   bands (ev):

   -10.0837   1.3322   3.1892   3.3603  10.3986  13.8497  15.2691  17.4600
    19.8965

          k =-0.4847-0.9695 0.0000 (  1628 PWs)   bands (ev):

   -10.0683   2.1524   2.1524   3.0533  11.7607  14.7360  14.7360  15.7452
    22.7615

     the Fermi energy is    10.9064 ev

!    total energy              =     -37.72253380 Ry
     estimated scf accuracy    <       0.00000001 Ry

     The total energy is the sum of the following terms:
     one-electron contribution =      -8.03771749 Ry
     hartree contribution      =      10.04792653 Ry
     xc contribution           =     -10.50333044 Ry
     ewald contribution        =     -29.22941241 Ry

     convergence has been achieved in   4 iterations

     Forces acting on atoms (cartesian axes, Ry/au):

     atom    1 type  1   force =     0.00000000    0.00000000    0.00000000
     atom    2 type  2   force =    -0.00000000   -0.00000000    0.00000000

     Total force =     0.000000     Total SCF correction =     0.000000


     Computing stress (Cartesian axis) and pressure

          total   stress  (Ry/bohr**3)                   (kbar)     P=       22.35
   0.00015193   0.00000000   0.00000000           22.35        0.00        0.00
   0.00000000   0.00015193  -0.00000000            0.00       22.35       -0.00
   0.00000000  -0.00000000   0.00015193            0.00       -0.00       22.35

     Energy error            =      8.8E-03 Ry
     Gradient error          =      1.9E-31 Ry/Bohr
     Cell gradient error     =      2.2E+01 kbar

     number of scf cycles    =   2
     number of bfgs steps    =   1

     enthalpy           old  =     -37.7137676605 Ry
     enthalpy           new  =     -37.7225337985 Ry

     CASE: enthalpy          _new < enthalpy          _old

     new trust radius        =       0.0109448441 bohr
     new conv_thr            =       0.0000000100 Ry

     new unit-cell volume =    150.22374 a.u.^3 (    22.26086 Ang^3 )
     density =      3.20615 g/cm^3

CELL_PARAMETERS (alat=  8.14440000)
  -0.518056464   0.000000000   0.518056464
  -0.000000000   0.518056464   0.518056464
  -0.518056464   0.518056464   0.000000000

ATOMIC_POSITIONS (crystal)
Al               0.0000000000        0.0000000000       -0.0000000000
O                0.5000000000        0.5000000000        0.5000000000



     Writing config-only to output data dir ./tmp/AlO.save/ :
     XML data file
     NEW-OLD atomic charge density approx. for the potential

     Check: negative core charge=   -0.000001

     total cpu time spent up to now is       15.9 secs

     Self-consistent Calculation

     iteration #  1     ecut=    80.00 Ry     beta= 0.70
     Davidson diagonalization with overlap
     ethr =  1.00E-06,  avg # of iterations =  3.3

     Threshold (ethr) on eigenvalues was too large:
     Diagonalizing with lowered threshold

     Davidson diagonalization with overlap
     ethr =  2.63E-08,  avg # of iterations =  2.5

     total cpu time spent up to now is       18.1 secs

     total energy              =     -37.72270144 Ry
     estimated scf accuracy    <       0.00000243 Ry

     iteration #  2     ecut=    80.00 Ry     beta= 0.70
     Davidson diagonalization with overlap
     ethr =  2.70E-08,  avg # of iterations =  1.7

     total cpu time spent up to now is       19.0 secs

     total energy              =     -37.72270154 Ry
     estimated scf accuracy    <       0.00000147 Ry

     iteration #  3     ecut=    80.00 Ry     beta= 0.70
     Davidson diagonalization with overlap
     ethr =  1.63E-08,  avg # of iterations =  1.8

     total cpu time spent up to now is       19.9 secs

     total energy              =     -37.72270191 Ry
     estimated scf accuracy    <       0.00000019 Ry

     iteration #  4     ecut=    80.00 Ry     beta= 0.70
     Davidson diagonalization with overlap
     ethr =  2.10E-09,  avg # of iterations =  1.0

     total cpu time spent up to now is       20.7 secs

     End of self-consistent calculation

          k = 0.0000 0.0000 0.0000 (  1639 PWs)   bands (ev):

   -11.5477   5.0134   5.0134   5.0134   5.9091  18.7646  18.7646  21.3675
    21.3675

          k =-0.1206 0.1206-0.1206 (  1624 PWs)   bands (ev):

   -11.4106   3.5368   4.9447   4.9447   7.3498  16.9874  18.6603  18.6603
    20.6404

          k =-0.2413 0.2413-0.2413 (  1636 PWs)   bands (ev):

   -11.0553   1.8562   4.7871   4.7871   8.8799  15.0427  17.6592  17.6592
    20.8381

          k =-0.3619 0.3619-0.3619 (  1634 PWs)   bands (ev):

   -10.6570   0.5993   4.6404   4.6404   9.8358  13.9972  16.7474  16.7474
    20.5901

          k = 0.4826-0.4826 0.4826 (  1622 PWs)   bands (ev):

   -10.4759   0.1203   4.5827   4.5827  10.1170  13.7174  16.4212  16.4212
    20.5901

          k =-0.0000 0.2413 0.0000 (  1623 PWs)   bands (ev):

   -11.3661   3.4481   4.7802   4.7802   7.7230  17.0244  18.2960  18.4584
    18.4584

          k =-0.1206 0.3619-0.1206 (  1627 PWs)   bands (ev):

   -11.0861   2.2520   4.5611   4.5840   9.0007  15.4158  16.5314  18.0814
    19.2252

          k =-0.2413 0.4826-0.2413 (  1639 PWs)   bands (ev):

   -10.7009   1.0531   4.2805   4.4175  10.1710  14.0313  15.7316  17.3382
    20.3402

          k = 0.6032-0.3619 0.6032 (  1625 PWs)   bands (ev):

   -10.4403   0.3889   3.9913   4.4227  10.8203  13.3184  15.5874  16.7768
    21.4193

          k = 0.4826-0.2413 0.4826 (  1626 PWs)   bands (ev):

   -10.4991   0.5338   3.8859   4.5709  10.7501  13.5019  15.6007  16.7252
    22.1339

          k = 0.3619-0.1206 0.3619 (  1630 PWs)   bands (ev):

   -10.8300   1.4021   4.0541   4.7860   9.8845  14.5540  15.8973  17.3072
    21.1832

          k = 0.2413 0.0000 0.2413 (  1622 PWs)   bands (ev):

   -11.2013   2.5907   4.4899   4.9458   8.5068  15.9677  17.0052  18.4983
    19.6774

          k =-0.0000 0.4826 0.0000 (  1636 PWs)   bands (ev):

   -10.9073   2.0141   4.2632   4.2632   9.5743  14.9237  15.2012  18.3615
    18.3615

          k =-0.1206 0.6032-0.1206 (  1637 PWs)   bands (ev):

   -10.6044   1.3865   3.8214   4.0665  10.2416  14.0550  14.5837  18.1356
    18.8089

          k = 0.7239-0.2413 0.7239 (  1633 PWs)   bands (ev):

   -10.3486   0.9955   3.0934   4.0665  11.0118  13.2884  14.8319  17.5995
    19.5295

          k = 0.6032-0.1206 0.6032 (  1633 PWs)   bands (ev):

   -10.3127   1.0128   2.6327   4.2627  12.0068  12.5839  14.8482  17.1813
    20.8361

          k = 0.4826 0.0000 0.4826 (  1624 PWs)   bands (ev):

   -10.5220   1.1606   3.0254   4.5594  11.3722  13.5504  14.6653  17.0899
    22.3927

          k = 0.0000 0.7239 0.0000 (  1632 PWs)   bands (ev):

   -10.4166   1.2030   3.7995   3.7995   9.6579  13.5903  14.6433  18.5689
    18.5689

          k = 0.8445-0.1206 0.8445 (  1640 PWs)   bands (ev):

   -10.2478   1.1249   3.1807   3.7450   9.7878  13.4927  14.9099  18.3858
    18.6030

          k = 0.7239 0.0000 0.7239 (  1638 PWs)   bands (ev):

   -10.2053   1.5470   2.0690   3.9264  10.7320  13.5234  14.9125  17.8202
    18.9600

          k = 0.0000-0.9651-0.0000 (  1660 PWs)   bands (ev):

   -10.2031   0.9657   3.6200   3.6200   9.1227  13.1398  15.1893  18.7061
    18.7061

          k =-0.2413 0.4826 0.0000 (  1640 PWs)   bands (ev):

   -10.7919   1.6006   3.8589   4.5071  10.1200  14.8065  14.8337  17.6959
    19.6712

          k = 0.6032-0.3619 0.8445 (  1632 PWs)   bands (ev):

   -10.4714   1.0154   3.3114   4.2608  11.2647  13.3807  14.8034  17.1154
    20.9232

          k = 0.4826-0.2413 0.7239 (  1634 PWs)   bands (ev):

   -10.3293   0.7705   3.1258   4.1272  12.0143  12.5131  15.0064  16.8789
    22.0258

          k = 0.7239-0.2413 0.9651 (  1634 PWs)   bands (ev):

   -10.3676   1.2230   3.3046   3.7238  10.5680  13.9822  14.2390  17.5097
    19.5731

          k = 0.6032-0.1206 0.8445 (  1631 PWs)   bands (ev):

   -10.2249   1.4107   2.4763   3.5775  11.2541  13.6473  14.6692  16.7065
    20.5474

          k = 0.4826 0.0000 0.7239 (  1639 PWs)   bands (ev):

   -10.2703   1.4019   2.3297   3.8573  12.0059  13.0384  14.5635  16.7595
    21.8491

          k =-0.2413-0.9651-0.0000 (  1636 PWs)   bands (ev):

   -10.1883   1.2606   3.0927   3.2534  10.1546  13.6812  15.0261  17.1786
    19.6101

          k =-0.4826-0.9651-0.0000 (  1628 PWs)   bands (ev):

   -10.1735   2.0707   2.0707   2.9466  11.5044  14.5199  14.5199  15.4825
    22.4842

     the Fermi energy is    10.6748 ev

!    total energy              =     -37.72270195 Ry
     estimated scf accuracy    <          3.0E-10 Ry

     The total energy is the sum of the following terms:
     one-electron contribution =      -8.23403358 Ry
     hartree contribution      =      10.09888990 Ry
     xc contribution           =     -10.48894481 Ry
     ewald contribution        =     -29.09861345 Ry

     convergence has been achieved in   4 iterations

     Forces acting on atoms (cartesian axes, Ry/au):

     atom    1 type  1   force =    -0.00000000   -0.00000000   -0.00000000
     atom    2 type  2   force =     0.00000000    0.00000000    0.00000000

     Total force =     0.000000     Total SCF correction =     0.000000


     Computing stress (Cartesian axis) and pressure

          total   stress  (Ry/bohr**3)                   (kbar)     P=        2.76
   0.00001875  -0.00000000  -0.00000000            2.76       -0.00       -0.00
  -0.00000000   0.00001875   0.00000000           -0.00        2.76        0.00
  -0.00000000   0.00000000   0.00001875           -0.00        0.00        2.76

     Energy error            =      1.7E-04 Ry
     Gradient error          =      9.5E-32 Ry/Bohr
     Cell gradient error     =      2.8E+00 kbar

     number of scf cycles    =   3
     number of bfgs steps    =   2

     enthalpy           old  =     -37.7225337985 Ry
     enthalpy           new  =     -37.7227019481 Ry

     CASE: enthalpy          _new < enthalpy          _old

     new trust radius        =       0.0015602959 bohr
     new conv_thr            =       0.0000000100 Ry

     new unit-cell volume =    150.51078 a.u.^3 (    22.30340 Ang^3 )
     density =      3.20003 g/cm^3

CELL_PARAMETERS (alat=  8.14440000)
  -0.518386214   0.000000000   0.518386214
  -0.000000000   0.518386214   0.518386214
  -0.518386214   0.518386214   0.000000000

ATOMIC_POSITIONS (crystal)
Al               0.0000000000       -0.0000000000        0.0000000000
O                0.5000000000        0.5000000000        0.5000000000



     Writing config-only to output data dir ./tmp/AlO.save/ :
     XML data file
     NEW-OLD atomic charge density approx. for the potential

     Check: negative core charge=   -0.000001

     total cpu time spent up to now is       21.6 secs

     Self-consistent Calculation

     iteration #  1     ecut=    80.00 Ry     beta= 0.70
     Davidson diagonalization with overlap
     ethr =  1.00E-06,  avg # of iterations =  2.0

     Threshold (ethr) on eigenvalues was too large:
     Diagonalizing with lowered threshold

     Davidson diagonalization with overlap
     ethr =  7.08E-10,  avg # of iterations =  3.8

     total cpu time spent up to now is       23.5 secs

     total energy              =     -37.72270464 Ry
     estimated scf accuracy    <       0.00000005 Ry

     iteration #  2     ecut=    80.00 Ry     beta= 0.70
     Davidson diagonalization with overlap
     ethr =  5.86E-10,  avg # of iterations =  1.9

     total cpu time spent up to now is       24.7 secs

     total energy              =     -37.72270465 Ry
     estimated scf accuracy    <       0.00000004 Ry

     iteration #  3     ecut=    80.00 Ry     beta= 0.70
     Davidson diagonalization with overlap
     ethr =  4.23E-10,  avg # of iterations =  1.7

     total cpu time spent up to now is       25.9 secs

     End of self-consistent calculation

          k = 0.0000 0.0000 0.0000 (  1639 PWs)   bands (ev):

   -11.5571   4.9954   4.9954   4.9954   5.8767  18.7369  18.7369  21.3205
    21.3205

          k =-0.1206 0.1206-0.1206 (  1624 PWs)   bands (ev):

   -11.4205   3.5175   4.9269   4.9269   7.3195  16.9583  18.6288  18.6288
    20.6025

          k =-0.2411 0.2411-0.2411 (  1636 PWs)   bands (ev):

   -11.0666   1.8406   4.7700   4.7700   8.8488  15.0114  17.6243  17.6243
    20.7978

          k =-0.3617 0.3617-0.3617 (  1634 PWs)   bands (ev):

   -10.6699   0.5873   4.6238   4.6238   9.8065  13.9609  16.7129  16.7129
    20.5519

          k = 0.4823-0.4823 0.4823 (  1622 PWs)   bands (ev):

   -10.4896   0.1098   4.5662   4.5662  10.0895  13.6779  16.3869  16.3869
    20.5528

          k =-0.0000 0.2411 0.0000 (  1623 PWs)   bands (ev):

   -11.3762   3.4286   4.7628   4.7628   7.6925  16.9993  18.2572  18.4253
    18.4253

          k =-0.1206 0.3617-0.1206 (  1627 PWs)   bands (ev):

   -11.0972   2.2354   4.5442   4.5671   8.9689  15.3876  16.4969  18.0457
    19.1904

          k =-0.2411 0.4823-0.2411 (  1639 PWs)   bands (ev):

   -10.7136   1.0401   4.2645   4.4011  10.1393  13.9975  15.6998  17.3023
    20.3032

          k = 0.6028-0.3617 0.6028 (  1625 PWs)   bands (ev):

   -10.4542   0.3781   3.9759   4.4065  10.7914  13.2800  15.5551  16.7414
    21.3806

          k = 0.4823-0.2411 0.4823 (  1626 PWs)   bands (ev):

   -10.5127   0.5225   3.8707   4.5545  10.7205  13.4641  15.5686  16.6899
    22.0935

          k = 0.3617-0.1206 0.3617 (  1630 PWs)   bands (ev):

   -10.8422   1.3879   4.0384   4.7690   9.8525  14.5216  15.8641  17.2712
    21.1516

          k = 0.2411 0.0000 0.2411 (  1622 PWs)   bands (ev):

   -11.2120   2.5732   4.4732   4.9283   8.4754  15.9402  16.9689  18.4604
    19.6485

          k =-0.0000 0.4823 0.0000 (  1636 PWs)   bands (ev):

   -10.9191   1.9986   4.2469   4.2469   9.5413  14.9015  15.1661  18.3238
    18.3238

          k =-0.1206 0.6028-0.1206 (  1637 PWs)   bands (ev):

   -10.6175   1.3733   3.8061   4.0507  10.2075  14.0270  14.5539  18.0970
    18.7705

          k = 0.7234-0.2411 0.7234 (  1633 PWs)   bands (ev):

   -10.3628   0.9841   3.0796   4.0509  10.9780  13.2566  14.8010  17.5615
    19.4923

          k = 0.6028-0.1206 0.6028 (  1633 PWs)   bands (ev):

   -10.3271   1.0013   2.6198   4.2468  11.9750  12.5483  14.8164  17.1441
    20.7995

          k = 0.4823 0.0000 0.4823 (  1624 PWs)   bands (ev):

   -10.5354   1.1476   3.0119   4.5430  11.3389  13.5149  14.6355  17.0531
    22.3601

          k = 0.0000 0.7234 0.0000 (  1632 PWs)   bands (ev):

   -10.4305   1.1915   3.7841   3.7841   9.6240  13.5698  14.6087  18.5281
    18.5281

          k = 0.8440-0.1206 0.8440 (  1640 PWs)   bands (ev):

   -10.2625   1.1145   3.1663   3.7298   9.7538  13.4701  14.8753  18.3451
    18.5628

          k = 0.7234 0.0000 0.7234 (  1638 PWs)   bands (ev):

   -10.2202   1.5363   2.0559   3.9110  10.6980  13.4944  14.8789  17.7810
    18.9234

          k = 0.0000-0.9645-0.0000 (  1660 PWs)   bands (ev):

   -10.2180   0.9560   3.6049   3.6049   9.0890  13.1199  15.1538  18.6642
    18.6642

          k =-0.2411 0.4823 0.0000 (  1640 PWs)   bands (ev):

   -10.8042   1.5860   3.8436   4.4906  10.0867  14.7802  14.7985  17.6584
    19.6362

          k = 0.6028-0.3617 0.8440 (  1632 PWs)   bands (ev):

   -10.4851   1.0032   3.2973   4.2448  11.2312  13.3467  14.7738  17.0783
    20.8866

          k = 0.4823-0.2411 0.7234 (  1634 PWs)   bands (ev):

   -10.3437   0.7594   3.1120   4.1114  11.9845  12.4755  14.9748  16.8423
    21.9892

          k = 0.7234-0.2411 0.9645 (  1634 PWs)   bands (ev):

   -10.3818   1.2113   3.2904   3.7085  10.5332  13.9577  14.2053  17.4706
    19.5341

          k = 0.6028-0.1206 0.8440 (  1631 PWs)   bands (ev):

   -10.2398   1.3994   2.4635   3.5623  11.2188  13.6171  14.6377  16.6691
    20.5092

          k = 0.4823 0.0000 0.7234 (  1639 PWs)   bands (ev):

   -10.2849   1.3897   2.3176   3.8418  11.9690  13.0073  14.5330  16.7225
    21.8113

          k =-0.2411-0.9645-0.0000 (  1636 PWs)   bands (ev):

   -10.2033   1.2504   3.0790   3.2382  10.1202  13.6574  14.9917  17.1389
    19.5698

          k =-0.4823-0.9645-0.0000 (  1628 PWs)   bands (ev):

   -10.1885   2.0591   2.0591   2.9314  11.4683  14.4893  14.4893  15.4455
    22.4451

     the Fermi energy is    10.6421 ev

!    total energy              =     -37.72270465 Ry
     estimated scf accuracy    <          3.3E-09 Ry

     The total energy is the sum of the following terms:
     one-electron contribution =      -8.26198563 Ry
     hartree contribution      =      10.10634896 Ry
     xc contribution           =     -10.48696441 Ry
     ewald contribution        =     -29.08010357 Ry

     convergence has been achieved in   3 iterations

     Forces acting on atoms (cartesian axes, Ry/au):

     atom    1 type  1   force =     0.00000000    0.00000000    0.00000000
     atom    2 type  2   force =     0.00000000    0.00000000    0.00000000

     Total force =     0.000000     Total SCF correction =     0.000000


     Computing stress (Cartesian axis) and pressure

          total   stress  (Ry/bohr**3)                   (kbar)     P=        0.13
   0.00000089   0.00000000  -0.00000000            0.13        0.00       -0.00
   0.00000000   0.00000089   0.00000000            0.00        0.13        0.00
  -0.00000000   0.00000000   0.00000089           -0.00        0.00        0.13

     Energy error            =      2.7E-06 Ry
     Gradient error          =      4.4E-31 Ry/Bohr
     Cell gradient error     =      1.3E-01 kbar

     bfgs converged in   4 scf cycles and   3 bfgs steps
     (criteria: energy <  1.0E-04 Ry, force <  1.0E-03 Ry/Bohr, cell <  5.0E-01 kbar)

     End of BFGS Geometry Optimization

     Final enthalpy           =     -37.7227046540 Ry

     File ./tmp/AlO.bfgs deleted, as requested
Begin final coordinates
     new unit-cell volume =    150.51078 a.u.^3 (    22.30340 Ang^3 )
     density =      3.20003 g/cm^3

CELL_PARAMETERS (alat=  8.14440000)
  -0.518386214   0.000000000   0.518386214
  -0.000000000   0.518386214   0.518386214
  -0.518386214   0.518386214   0.000000000

ATOMIC_POSITIONS (crystal)
Al               0.0000000000       -0.0000000000        0.0000000000
O                0.5000000000        0.5000000000        0.5000000000
End final coordinates



     Writing config-only to output data dir ./tmp/AlO.save/ :
     XML data file

     Final scf calculation at the relaxed structure.
     The G-vectors are recalculated for the final unit cell
     Results may differ from those at the preceding step.

     G-vector sticks info
     --------------------
     sticks:   dense  smooth     PW     G-vecs:    dense   smooth      PW
     Sum         769     769    241                14361    14361    2445

     Using Slab Decomposition



     bravais-lattice index     =            2
     lattice parameter (alat)  =       8.1444  a.u.
     unit-cell volume          =     150.5108 (a.u.)^3
     number of atoms/cell      =            2
     number of atomic types    =            2
     number of electrons       =         9.00
     number of Kohn-Sham states=            9
     kinetic-energy cutoff     =      80.0000  Ry
     charge density cutoff     =     320.0000  Ry
     scf convergence threshold =      1.0E-08
     mixing beta               =       0.7000
     number of iterations used =            8  plain     mixing
     press convergence thresh. =      5.0E-01
     Exchange-correlation= PBE
                           (   1   4   3   4   0   0   0)

     celldm(1)=   8.144400  celldm(2)=   0.000000  celldm(3)=   0.000000
     celldm(4)=   0.000000  celldm(5)=   0.000000  celldm(6)=   0.000000

     crystal axes: (cart. coord. in units of alat)
               a(1) = (  -0.518386   0.000000   0.518386 )  
               a(2) = (  -0.000000   0.518386   0.518386 )  
               a(3) = (  -0.518386   0.518386   0.000000 )  

     reciprocal axes: (cart. coord. in units 2 pi/alat)
               b(1) = ( -0.964532 -0.964532  0.964532 )  
               b(2) = (  0.964532  0.964532  0.964532 )  
               b(3) = ( -0.964532  0.964532 -0.964532 )  


     PseudoPot. # 1 for Al read from file:
     ./PSEUDO/Al_ONCV_PBE_sr.upf
     MD5 check sum: 71949a6c272e6faf888e318530e21af5
     Pseudo is Norm-conserving + core correction, Zval =  3.0
     Generated using ONCVPSP code by D. R. Hamann
     Using radial grid of 1876 points,  6 beta functions with: 
                l(1) =   0
                l(2) =   0
                l(3) =   1
                l(4) =   1
                l(5) =   2
                l(6) =   2

     PseudoPot. # 2 for O  read from file:
     ./PSEUDO/O_ONCV_PBE_sr.upf
     MD5 check sum: b0122293cc47a814ad0627188f9a6d95
     Pseudo is Norm-conserving + core correction, Zval =  6.0
     Generated using ONCVPSP code by D. R. Hamann
     Using radial grid of  936 points,  5 beta functions with: 
                l(1) =   0
                l(2) =   0
                l(3) =   1
                l(4) =   1
                l(5) =   2

     atomic species   valence    mass     pseudopotential
     Al                3.00    26.98200     Al( 1.00)
     O                 6.00    15.99900     O ( 1.00)

     48 Sym. Ops., with inversion, found



   Cartesian axes

     site n.     atom                  positions (alat units)
         1        Al     tau(   1) = (  -0.0000000  -0.0000000  -0.0000000  )
         2        O      tau(   2) = (  -0.5183862   0.5183862   0.5183862  )

     number of k points=    29 (tetrahedron method)
                       cart. coord. in units 2pi/alat
        k(    1) = (   0.0000000   0.0000000   0.0000000), wk =   0.0039062
        k(    2) = (  -0.1205665   0.1205665  -0.1205665), wk =   0.0312500
        k(    3) = (  -0.2411330   0.2411330  -0.2411330), wk =   0.0312500
        k(    4) = (  -0.3616994   0.3616994  -0.3616994), wk =   0.0312500
        k(    5) = (   0.4822659  -0.4822659   0.4822659), wk =   0.0156250
        k(    6) = (  -0.0000000   0.2411330   0.0000000), wk =   0.0234375
        k(    7) = (  -0.1205665   0.3616994  -0.1205665), wk =   0.0937500
        k(    8) = (  -0.2411330   0.4822659  -0.2411330), wk =   0.0937500
        k(    9) = (   0.6028324  -0.3616994   0.6028324), wk =   0.0937500
        k(   10) = (   0.4822659  -0.2411330   0.4822659), wk =   0.0937500
        k(   11) = (   0.3616994  -0.1205665   0.3616994), wk =   0.0937500
        k(   12) = (   0.2411330   0.0000000   0.2411330), wk =   0.0468750
        k(   13) = (  -0.0000000   0.4822659   0.0000000), wk =   0.0234375
        k(   14) = (  -0.1205665   0.6028324  -0.1205665), wk =   0.0937500
        k(   15) = (   0.7233989  -0.2411330   0.7233989), wk =   0.0937500
        k(   16) = (   0.6028324  -0.1205665   0.6028324), wk =   0.0937500
        k(   17) = (   0.4822659   0.0000000   0.4822659), wk =   0.0468750
        k(   18) = (   0.0000000   0.7233989   0.0000000), wk =   0.0234375
        k(   19) = (   0.8439653  -0.1205665   0.8439653), wk =   0.0937500
        k(   20) = (   0.7233989   0.0000000   0.7233989), wk =   0.0468750
        k(   21) = (   0.0000000  -0.9645318  -0.0000000), wk =   0.0117188
        k(   22) = (  -0.2411330   0.4822659   0.0000000), wk =   0.0937500
        k(   23) = (   0.6028324  -0.3616994   0.8439653), wk =   0.1875000
        k(   24) = (   0.4822659  -0.2411330   0.7233989), wk =   0.0937500
        k(   25) = (   0.7233989  -0.2411330   0.9645318), wk =   0.0937500
        k(   26) = (   0.6028324  -0.1205665   0.8439653), wk =   0.1875000
        k(   27) = (   0.4822659   0.0000000   0.7233989), wk =   0.0937500
        k(   28) = (  -0.2411330  -0.9645318  -0.0000000), wk =   0.0468750
        k(   29) = (  -0.4822659  -0.9645318  -0.0000000), wk =   0.0234375

     Dense  grid:    14361 G-vectors     FFT dimensions: (  36,  36,  36)

     Estimated max dynamical RAM per process >      24.93 MB

     Initial potential from superposition of free atoms

     starting charge       8.9975, renormalised to       9.0000
     Starting wfcs are    8 randomized atomic wfcs +    1 random wfcs

     total cpu time spent up to now is       27.9 secs

     Self-consistent Calculation

     iteration #  1     ecut=    80.00 Ry     beta= 0.70
     Davidson diagonalization with overlap
     c_bands:  1 eigenvalues not converged
     c_bands:  1 eigenvalues not converged
     c_bands:  1 eigenvalues not converged
     c_bands:  1 eigenvalues not converged
     c_bands:  1 eigenvalues not converged
     c_bands:  1 eigenvalues not converged
     ethr =  1.00E-06,  avg # of iterations = 14.4

     total cpu time spent up to now is       30.9 secs

     total energy              =     -37.56092095 Ry
     estimated scf accuracy    <       0.33167475 Ry

     iteration #  2     ecut=    80.00 Ry     beta= 0.70
     Davidson diagonalization with overlap
     ethr =  3.69E-03,  avg # of iterations =  2.0

     total cpu time spent up to now is       32.2 secs

     total energy              =     -37.61889951 Ry
     estimated scf accuracy    <       0.56970969 Ry

     iteration #  3     ecut=    80.00 Ry     beta= 0.70
     Davidson diagonalization with overlap
     ethr =  3.69E-03,  avg # of iterations =  1.9

     total cpu time spent up to now is       33.2 secs

     total energy              =     -37.72225534 Ry
     estimated scf accuracy    <       0.00136032 Ry

     iteration #  4     ecut=    80.00 Ry     beta= 0.70
     Davidson diagonalization with overlap
     ethr =  1.51E-05,  avg # of iterations =  2.5

     total cpu time spent up to now is       34.3 secs

     total energy              =     -37.72299913 Ry
     estimated scf accuracy    <       0.00025801 Ry

     iteration #  5     ecut=    80.00 Ry     beta= 0.70
     Davidson diagonalization with overlap
     ethr =  2.87E-06,  avg # of iterations =  1.3

     total cpu time spent up to now is       35.2 secs

     total energy              =     -37.72300249 Ry
     estimated scf accuracy    <       0.00001392 Ry

     iteration #  6     ecut=    80.00 Ry     beta= 0.70
     Davidson diagonalization with overlap
     ethr =  1.55E-07,  avg # of iterations =  2.0

     total cpu time spent up to now is       36.2 secs

     total energy              =     -37.72300726 Ry
     estimated scf accuracy    <       0.00000630 Ry

     iteration #  7     ecut=    80.00 Ry     beta= 0.70
     Davidson diagonalization with overlap
     ethr =  6.99E-08,  avg # of iterations =  1.1

     total cpu time spent up to now is       37.1 secs

     total energy              =     -37.72300849 Ry
     estimated scf accuracy    <       0.00000002 Ry

     iteration #  8     ecut=    80.00 Ry     beta= 0.70
     Davidson diagonalization with overlap
     ethr =  1.90E-10,  avg # of iterations =  3.9

     total cpu time spent up to now is       38.6 secs

     total energy              =     -37.72300852 Ry
     estimated scf accuracy    <       0.00000004 Ry

     iteration #  9     ecut=    80.00 Ry     beta= 0.70
     Davidson diagonalization with overlap
     ethr =  1.90E-10,  avg # of iterations =  1.7

     total cpu time spent up to now is       39.7 secs

     End of self-consistent calculation

          k = 0.0000 0.0000 0.0000 (  1837 PWs)   bands (ev):

   -11.5562   4.9956   4.9956   4.9956   5.8770  18.7365  21.3203  21.3203
    21.3203

          k =-0.1206 0.1206-0.1206 (  1829 PWs)   bands (ev):

   -11.4197   3.5176   4.9271   4.9271   7.3196  16.9580  18.6285  18.6285
    20.6024

          k =-0.2411 0.2411-0.2411 (  1829 PWs)   bands (ev):

   -11.0657   1.8410   4.7701   4.7701   8.8490  15.0112  17.6241  17.6241
    20.7978

          k =-0.3617 0.3617-0.3617 (  1838 PWs)   bands (ev):

   -10.6689   0.5875   4.6239   4.6239   9.8066  13.9606  16.7128  16.7128
    20.5517

          k = 0.4823-0.4823 0.4823 (  1802 PWs)   bands (ev):

   -10.4886   0.1100   4.5663   4.5663  10.0896  13.6776  16.3868  16.3868
    20.5526

          k =-0.0000 0.2411 0.0000 (  1828 PWs)   bands (ev):

   -11.3753   3.4287   4.7630   4.7630   7.6925  16.9991  18.2570  18.4250
    18.4250

          k =-0.1206 0.3617-0.1206 (  1822 PWs)   bands (ev):

   -11.0963   2.2357   4.5445   4.5672   8.9690  15.3873  16.4968  18.0455
    19.1901

          k =-0.2411 0.4823-0.2411 (  1840 PWs)   bands (ev):

   -10.7127   1.0404   4.2646   4.4014  10.1394  13.9973  15.6997  17.3021
    20.3030

          k = 0.6028-0.3617 0.6028 (  1815 PWs)   bands (ev):

   -10.4532   0.3783   3.9760   4.4066  10.7914  13.2798  15.5550  16.7412
    21.3803

          k = 0.4823-0.2411 0.4823 (  1811 PWs)   bands (ev):

   -10.5117   0.5227   3.8709   4.5546  10.7205  13.4639  15.5684  16.6897
    22.0934

          k = 0.3617-0.1206 0.3617 (  1831 PWs)   bands (ev):

   -10.8413   1.3882   4.0386   4.7691   9.8527  14.5213  15.8639  17.2710
    21.1513

          k = 0.2411 0.0000 0.2411 (  1839 PWs)   bands (ev):

   -11.2111   2.5734   4.4734   4.9282   8.4756  15.9399  16.9686  18.4602
    19.6481

          k =-0.0000 0.4823 0.0000 (  1828 PWs)   bands (ev):

   -10.9182   1.9989   4.2472   4.2472   9.5413  14.9012  15.1659  18.3235
    18.3235

          k =-0.1206 0.6028-0.1206 (  1815 PWs)   bands (ev):

   -10.6165   1.3736   3.8065   4.0509  10.2076  14.0268  14.5537  18.0966
    18.7702

          k = 0.7234-0.2411 0.7234 (  1809 PWs)   bands (ev):

   -10.3618   0.9844   3.0797   4.0511  10.9780  13.2564  14.8009  17.5613
    19.4922

          k = 0.6028-0.1206 0.6028 (  1814 PWs)   bands (ev):

   -10.3261   1.0015   2.6200   4.2470  11.9750  12.5482  14.8162  17.1439
    20.7994

          k = 0.4823 0.0000 0.4823 (  1812 PWs)   bands (ev):

   -10.5345   1.1479   3.0122   4.5431  11.3389  13.5148  14.6353  17.0529
    22.4093

          k = 0.0000 0.7234 0.0000 (  1796 PWs)   bands (ev):

   -10.4295   1.1917   3.7844   3.7844   9.6240  13.5695  14.6085  18.5277
    18.5277

          k = 0.8440-0.1206 0.8440 (  1800 PWs)   bands (ev):

   -10.2614   1.1147   3.1666   3.7301   9.7538  13.4699  14.8751  18.3447
    18.5626

          k = 0.7234 0.0000 0.7234 (  1822 PWs)   bands (ev):

   -10.2191   1.5366   2.0561   3.9113  10.6979  13.4942  14.8787  17.7807
    18.9233

          k = 0.0000-0.9645-0.0000 (  1772 PWs)   bands (ev):

   -10.2170   0.9563   3.6055   3.6055   9.0890  13.1197  15.1540  18.6641
    18.6641

          k =-0.2411 0.4823 0.0000 (  1833 PWs)   bands (ev):

   -10.8033   1.5863   3.8439   4.4907  10.0868  14.7800  14.7984  17.6581
    19.6360

          k = 0.6028-0.3617 0.8440 (  1815 PWs)   bands (ev):

   -10.4841   1.0034   3.2975   4.2450  11.2312  13.3466  14.7735  17.0781
    20.8863

          k = 0.4823-0.2411 0.7234 (  1808 PWs)   bands (ev):

   -10.3427   0.7597   3.1122   4.1116  11.9845  12.4753  14.9746  16.8421
    21.9890

          k = 0.7234-0.2411 0.9645 (  1807 PWs)   bands (ev):

   -10.3808   1.2116   3.2907   3.7087  10.5332  13.9574  14.2052  17.4703
    19.5337

          k = 0.6028-0.1206 0.8440 (  1817 PWs)   bands (ev):

   -10.2387   1.3996   2.4637   3.5625  11.2186  13.6168  14.6375  16.6689
    20.5089

          k = 0.4823 0.0000 0.7234 (  1823 PWs)   bands (ev):

   -10.2839   1.3900   2.3179   3.8420  11.9689  13.0074  14.5328  16.7224
    21.8112

          k =-0.2411-0.9645-0.0000 (  1798 PWs)   bands (ev):

   -10.2023   1.2506   3.0793   3.2384  10.1202  13.6572  14.9914  17.1387
    19.5694

          k =-0.4823-0.9645-0.0000 (  1800 PWs)   bands (ev):

   -10.1875   2.0593   2.0593   2.9315  11.4680  14.4892  14.4892  15.4455
    22.4449

     the Fermi energy is    10.6421 ev

!    total energy              =     -37.72300852 Ry
     estimated scf accuracy    <          3.5E-09 Ry

     The total energy is the sum of the following terms:
     one-electron contribution =      -8.26235148 Ry
     hartree contribution      =      10.10664540 Ry
     xc contribution           =     -10.48719887 Ry
     ewald contribution        =     -29.08010357 Ry

     convergence has been achieved in   9 iterations

     Forces acting on atoms (cartesian axes, Ry/au):

     atom    1 type  1   force =     0.00000000    0.00000000    0.00000000
     atom    2 type  2   force =     0.00000000    0.00000000   -0.00000000

     Total force =     0.000000     Total SCF correction =     0.000000


     Computing stress (Cartesian axis) and pressure

          total   stress  (Ry/bohr**3)                   (kbar)     P=        3.74
   0.00002545   0.00000000  -0.00000000            3.74        0.00       -0.00
   0.00000000   0.00002545   0.00000000            0.00        3.74        0.00
  -0.00000000   0.00000000   0.00002545           -0.00        0.00        3.74


     Writing all to output data dir ./tmp/AlO.save/ :
     XML data file, charge density, pseudopotentials, collected wavefunctions

     init_run     :      1.64s CPU      1.67s WALL (       2 calls)
     electrons    :     33.06s CPU     33.53s WALL (       5 calls)
     update_pot   :      0.07s CPU      0.08s WALL (       3 calls)
     forces       :      1.53s CPU      1.60s WALL (       5 calls)
     stress       :      3.78s CPU      3.81s WALL (       5 calls)

     Called by init_run:
     wfcinit      :      0.73s CPU      0.75s WALL (       2 calls)
     potinit      :      0.15s CPU      0.16s WALL (       2 calls)
     hinit0       :      0.73s CPU      0.73s WALL (       2 calls)

     Called by electrons:
     c_bands      :     25.75s CPU     26.13s WALL (      29 calls)
     sum_band     :      6.75s CPU      6.80s WALL (      29 calls)
     v_of_rho     :      0.57s CPU      0.61s WALL (      32 calls)
     mix_rho      :      0.05s CPU      0.05s WALL (      29 calls)

     Called by c_bands:
     init_us_2    :      1.14s CPU      1.17s WALL (    2030 calls)
     init_us_2:cp :      1.13s CPU      1.15s WALL (    2030 calls)
     cegterg      :     23.67s CPU     24.02s WALL (     841 calls)

     Called by *egterg:
     cdiaghg      :      0.30s CPU      0.30s WALL (    2996 calls)
     h_psi        :     20.19s CPU     20.50s WALL (    3199 calls)
     g_psi        :      0.09s CPU      0.09s WALL (    2300 calls)

     Called by h_psi:
     h_psi:calbec :      2.10s CPU      2.15s WALL (    3199 calls)
     vloc_psi     :     16.28s CPU     16.53s WALL (    3199 calls)
     add_vuspsi   :      1.69s CPU      1.71s WALL (    3199 calls)

     General routines
     calbec       :      3.08s CPU      3.15s WALL (    3924 calls)
     fft          :      0.42s CPU      0.44s WALL (     445 calls)
     ffts         :      0.01s CPU      0.01s WALL (      29 calls)
     fftw         :     15.66s CPU     15.92s WALL (   50049 calls)


     PWSCF        :     40.21s CPU     40.86s WALL


   This run was terminated on:  11: 7:36  16Dec2024            

=------------------------------------------------------------------------------=
   JOB DONE.
=------------------------------------------------------------------------------=
