
     Program POST-PROC v.7.3 starts on 16Dec2024 at 13:35:25 

     This program is part of the open-source Quantum ESPRESSO suite
     for quantum simulation of materials; please cite
         "P. Giannozzi et al., J. Phys.:Condens. Matter 21 395502 (2009);
         "P. Giannozzi et al., J. Phys.:Condens. Matter 29 465901 (2017);
         "P. Giannozzi et al., J. Chem. Phys. 152 154105 (2020);
          URL http://www.quantum-espresso.org", 
     in publications or presentations arising from this work. More details at
     http://www.quantum-espresso.org/quote

     Serial version
     4704 MiB available memory on the printing compute node when the environment starts


     Reading xml data from directory:

     ./tmp/AlO.save/

     IMPORTANT: XC functional enforced from input :
     Exchange-correlation= PBE
                           (   1   4   3   4   0   0   0)
     Any further DFT definition will be discarded
     Please, verify this is what you really want


     G-vector sticks info
     --------------------
     sticks:   dense  smooth     PW     G-vecs:    dense   smooth      PW
     Sum        1361    1361    401                37993    37993    6031

     Using Slab Decomposition


     Check: negative core charge=   -0.000024

     Calling punch_plot, plot_num =   0
     Writing data to file  cubic.2d.dat
     Reading data from file  cubic.2d.dat

     Writing data to be plotted to file cubic_002.gnuplot
     Min, Max, imaginary charge:     0.001801    0.916334    0.000000
     Plot Type: 2D contour             Output format: gnuplot x,y,f

     POST-PROC    :      1.85s CPU      1.87s WALL


   This run was terminated on:  13:35:27  16Dec2024            

=------------------------------------------------------------------------------=
   JOB DONE.
=------------------------------------------------------------------------------=
