
     Program PWSCF v.7.3 starts on 16Dec2024 at 12:15: 7 

     This program is part of the open-source Quantum ESPRESSO suite
     for quantum simulation of materials; please cite
         "P. Giannozzi et al., J. Phys.:Condens. Matter 21 395502 (2009);
         "P. Giannozzi et al., J. Phys.:Condens. Matter 29 465901 (2017);
         "P. Giannozzi et al., J. Chem. Phys. 152 154105 (2020);
          URL http://www.quantum-espresso.org", 
     in publications or presentations arising from this work. More details at
     http://www.quantum-espresso.org/quote

     Serial version
     4853 MiB available memory on the printing compute node when the environment starts

     Waiting for input...
     Reading input from standard input

     Current dimensions of program PWSCF are:
     Max number of different atomic species (ntypx) = 10
     Max number of k-points (npk) =  40000
     Max angular momentum in pseudopotentials (lmaxx) =  4
     Message from routine iosys:
     BEWARE:  force calculation with tetrahedra (not recommanded)
     Message from routine iosys:
     BEWARE: stress calculation with tetrahedra (not recommanded)


     G-vector sticks info
     --------------------
     sticks:   dense  smooth     PW     G-vecs:    dense   smooth      PW
     Sum         793     793    241                14553    14553    2445

     Using Slab Decomposition



     bravais-lattice index     =            2
     lattice parameter (alat)  =       8.4530  a.u.
     unit-cell volume          =     150.9985 (a.u.)^3
     number of atoms/cell      =            2
     number of atomic types    =            2
     number of electrons       =         9.00
     number of Kohn-Sham states=            9
     kinetic-energy cutoff     =      80.0000  Ry
     charge density cutoff     =     320.0000  Ry
     scf convergence threshold =      1.0E-06
     mixing beta               =       0.7000
     number of iterations used =            8  plain     mixing
     Exchange-correlation= PBE
                           (   1   4   3   4   0   0   0)

     celldm(1)=   8.453000  celldm(2)=   0.000000  celldm(3)=   0.000000
     celldm(4)=   0.000000  celldm(5)=   0.000000  celldm(6)=   0.000000

     crystal axes: (cart. coord. in units of alat)
               a(1) = (  -0.500000   0.000000   0.500000 )  
               a(2) = (   0.000000   0.500000   0.500000 )  
               a(3) = (  -0.500000   0.500000   0.000000 )  

     reciprocal axes: (cart. coord. in units 2 pi/alat)
               b(1) = ( -1.000000 -1.000000  1.000000 )  
               b(2) = (  1.000000  1.000000  1.000000 )  
               b(3) = ( -1.000000  1.000000 -1.000000 )  


     PseudoPot. # 1 for Al read from file:
     ./PSEUDO/Al_ONCV_PBE_sr.upf
     MD5 check sum: 71949a6c272e6faf888e318530e21af5
     Pseudo is Norm-conserving + core correction, Zval =  3.0
     Generated using ONCVPSP code by D. R. Hamann
     Using radial grid of 1876 points,  6 beta functions with: 
                l(1) =   0
                l(2) =   0
                l(3) =   1
                l(4) =   1
                l(5) =   2
                l(6) =   2

     PseudoPot. # 2 for O  read from file:
     ./PSEUDO/O_ONCV_PBE_sr.upf
     MD5 check sum: b0122293cc47a814ad0627188f9a6d95
     Pseudo is Norm-conserving + core correction, Zval =  6.0
     Generated using ONCVPSP code by D. R. Hamann
     Using radial grid of  936 points,  5 beta functions with: 
                l(1) =   0
                l(2) =   0
                l(3) =   1
                l(4) =   1
                l(5) =   2

     atomic species   valence    mass     pseudopotential
     Al                3.00    26.98200     Al( 1.00)
     O                 6.00    15.99900     O ( 1.00)

     48 Sym. Ops., with inversion, found



   Cartesian axes

     site n.     atom                  positions (alat units)
         1        Al     tau(   1) = (   0.0000000   0.0000000   0.0000000  )
         2        O      tau(   2) = (  -0.5000000   0.5000000   0.5000000  )

     number of k points=    29 (tetrahedron method)
                       cart. coord. in units 2pi/alat
        k(    1) = (   0.0000000   0.0000000   0.0000000), wk =   0.0039062
        k(    2) = (  -0.1250000   0.1250000  -0.1250000), wk =   0.0312500
        k(    3) = (  -0.2500000   0.2500000  -0.2500000), wk =   0.0312500
        k(    4) = (  -0.3750000   0.3750000  -0.3750000), wk =   0.0312500
        k(    5) = (   0.5000000  -0.5000000   0.5000000), wk =   0.0156250
        k(    6) = (   0.0000000   0.2500000   0.0000000), wk =   0.0234375
        k(    7) = (  -0.1250000   0.3750000  -0.1250000), wk =   0.0937500
        k(    8) = (  -0.2500000   0.5000000  -0.2500000), wk =   0.0937500
        k(    9) = (   0.6250000  -0.3750000   0.6250000), wk =   0.0937500
        k(   10) = (   0.5000000  -0.2500000   0.5000000), wk =   0.0937500
        k(   11) = (   0.3750000  -0.1250000   0.3750000), wk =   0.0937500
        k(   12) = (   0.2500000   0.0000000   0.2500000), wk =   0.0468750
        k(   13) = (   0.0000000   0.5000000   0.0000000), wk =   0.0234375
        k(   14) = (  -0.1250000   0.6250000  -0.1250000), wk =   0.0937500
        k(   15) = (   0.7500000  -0.2500000   0.7500000), wk =   0.0937500
        k(   16) = (   0.6250000  -0.1250000   0.6250000), wk =   0.0937500
        k(   17) = (   0.5000000   0.0000000   0.5000000), wk =   0.0468750
        k(   18) = (   0.0000000   0.7500000   0.0000000), wk =   0.0234375
        k(   19) = (   0.8750000  -0.1250000   0.8750000), wk =   0.0937500
        k(   20) = (   0.7500000   0.0000000   0.7500000), wk =   0.0468750
        k(   21) = (   0.0000000  -1.0000000   0.0000000), wk =   0.0117188
        k(   22) = (  -0.2500000   0.5000000   0.0000000), wk =   0.0937500
        k(   23) = (   0.6250000  -0.3750000   0.8750000), wk =   0.1875000
        k(   24) = (   0.5000000  -0.2500000   0.7500000), wk =   0.0937500
        k(   25) = (   0.7500000  -0.2500000   1.0000000), wk =   0.0937500
        k(   26) = (   0.6250000  -0.1250000   0.8750000), wk =   0.1875000
        k(   27) = (   0.5000000   0.0000000   0.7500000), wk =   0.0937500
        k(   28) = (  -0.2500000  -1.0000000   0.0000000), wk =   0.0468750
        k(   29) = (  -0.5000000  -1.0000000   0.0000000), wk =   0.0234375

     Dense  grid:    14553 G-vectors     FFT dimensions: (  36,  36,  36)

     Estimated max dynamical RAM per process >      21.97 MB

     Initial potential from superposition of free atoms

     starting charge       8.9975, renormalised to       9.0000
     Starting wfcs are    8 randomized atomic wfcs +    1 random wfcs

     total cpu time spent up to now is        0.9 secs

     Self-consistent Calculation

     iteration #  1     ecut=    80.00 Ry     beta= 0.70
     Davidson diagonalization with overlap
     ethr =  1.00E-02,  avg # of iterations =  4.8

     total cpu time spent up to now is        2.0 secs

     total energy              =     -37.55458097 Ry
     estimated scf accuracy    <       0.33922083 Ry

     iteration #  2     ecut=    80.00 Ry     beta= 0.70
     Davidson diagonalization with overlap
     ethr =  3.77E-03,  avg # of iterations =  2.1

     total cpu time spent up to now is        2.9 secs

     total energy              =     -37.61671391 Ry
     estimated scf accuracy    <       0.60148142 Ry

     iteration #  3     ecut=    80.00 Ry     beta= 0.70
     Davidson diagonalization with overlap
     ethr =  3.77E-03,  avg # of iterations =  1.9

     total cpu time spent up to now is        3.6 secs

     total energy              =     -37.72368033 Ry
     estimated scf accuracy    <       0.00150267 Ry

     iteration #  4     ecut=    80.00 Ry     beta= 0.70
     Davidson diagonalization with overlap
     ethr =  1.67E-05,  avg # of iterations =  4.5

     total cpu time spent up to now is        4.8 secs

     total energy              =     -37.72453949 Ry
     estimated scf accuracy    <       0.00041365 Ry

     iteration #  5     ecut=    80.00 Ry     beta= 0.70
     Davidson diagonalization with overlap
     ethr =  4.60E-06,  avg # of iterations =  1.4

     total cpu time spent up to now is        5.6 secs

     total energy              =     -37.72454958 Ry
     estimated scf accuracy    <       0.00002234 Ry

     iteration #  6     ecut=    80.00 Ry     beta= 0.70
     Davidson diagonalization with overlap
     ethr =  2.48E-07,  avg # of iterations =  2.1

     total cpu time spent up to now is        6.6 secs

     total energy              =     -37.72456704 Ry
     estimated scf accuracy    <       0.00000929 Ry

     iteration #  7     ecut=    80.00 Ry     beta= 0.70
     Davidson diagonalization with overlap
     ethr =  1.03E-07,  avg # of iterations =  1.4

     total cpu time spent up to now is        7.3 secs

     End of self-consistent calculation

          k = 0.0000 0.0000 0.0000 (  1837 PWs)   bands (ev):

   -11.5667   4.9712   4.9712   4.9712   5.8245  18.6899  21.2413  21.2413
    21.2413

          k =-0.1250 0.1250-0.1250 (  1841 PWs)   bands (ev):

   -11.4309   3.4892   4.9031   4.9031   7.2722  16.9097  18.5755  18.5757
    20.5395

          k =-0.2500 0.2500-0.2500 (  1847 PWs)   bands (ev):

   -11.0790   1.8183   4.7470   4.7470   8.7997  14.9603  17.5653  17.5654
    20.7297

          k =-0.3750 0.3750-0.3750 (  1838 PWs)   bands (ev):

   -10.6847   0.5704   4.6016   4.6016   9.7591  13.9029  16.6545  16.6545
    20.4876

          k = 0.5000-0.5000 0.5000 (  1850 PWs)   bands (ev):

   -10.5057   0.0952   4.5442   4.5442  10.0444  13.6152  16.3289  16.3289
    20.4900

          k = 0.0000 0.2500 0.0000 (  1840 PWs)   bands (ev):

   -11.3868   3.4000   4.7393   4.7393   7.6450  16.9570  18.1915  18.3699
    18.3699

          k =-0.1250 0.3750-0.1250 (  1824 PWs)   bands (ev):

   -11.1093   2.2115   4.5216   4.5443   8.9190  15.3409  16.4388  17.9862
    19.1320

          k =-0.2500 0.5000-0.2500 (  1840 PWs)   bands (ev):

   -10.7281   1.0216   4.2429   4.3793  10.0891  13.9426  15.6467  17.2423
    20.2412

          k = 0.6250-0.3750 0.6250 (  1823 PWs)   bands (ev):

   -10.4705   0.3630   3.9550   4.3848  10.7445  13.2183  15.5018  16.6819
    21.3156

          k = 0.5000-0.2500 0.5000 (  1823 PWs)   bands (ev):

   -10.5285   0.5065   3.8501   4.5326  10.6727  13.4032  15.5155  16.6303
    22.0255

          k = 0.3750-0.1250 0.3750 (  1839 PWs)   bands (ev):

   -10.8559   1.3676   4.0173   4.7463   9.8021  14.4686  15.8087  17.2103
    21.0983

          k = 0.2500 0.0000 0.2500 (  1839 PWs)   bands (ev):

   -11.2235   2.5477   4.4507   4.9045   8.4265  15.8944  16.9080  18.3962
    19.5998

          k = 0.0000 0.5000 0.0000 (  1828 PWs)   bands (ev):

   -10.9324   1.9764   4.2251   4.2251   9.4892  14.8641  15.1072  18.2611
    18.2612

          k =-0.1250 0.6250-0.1250 (  1825 PWs)   bands (ev):

   -10.6326   1.3549   3.7857   4.0294  10.1529  13.9807  14.5048  18.0329
    18.7068

          k = 0.7500-0.2500 0.7500 (  1821 PWs)   bands (ev):

   -10.3797   0.9683   3.0607   4.0299  10.9227  13.2054  14.7515  17.4983
    19.4303

          k = 0.6250-0.1250 0.6250 (  1817 PWs)   bands (ev):

   -10.3442   0.9851   2.6024   4.2256  11.9221  12.4917  14.7656  17.0818
    20.7384

          k = 0.5000 0.0000 0.5000 (  1829 PWs)   bands (ev):

   -10.5511   1.1292   2.9938   4.5210  11.2862  13.4557  14.5878  16.9913
    22.3461

          k = 0.0000 0.7500 0.0000 (  1808 PWs)   bands (ev):

   -10.4468   1.1757   3.7634   3.7634   9.5679  13.5354  14.5533  18.4609
    18.4609

          k = 0.8750-0.1250 0.8750 (  1806 PWs)   bands (ev):

   -10.2799   1.1005   3.1467   3.7094   9.6973  13.4329  14.8207  18.2779
    18.4964

          k = 0.7500 0.0000 0.7500 (  1822 PWs)   bands (ev):

   -10.2380   1.5221   2.0376   3.8904  10.6414  13.4479  14.8259  17.7159
    18.8621

          k = 0.0000-1.0000 0.0000 (  1772 PWs)   bands (ev):

   -10.2358   0.9433   3.5850   3.5850   9.0324  13.0866  15.0986  18.5957
    18.5957

          k =-0.2500 0.5000 0.0000 (  1833 PWs)   bands (ev):

   -10.8182   1.5653   3.8231   4.4684  10.0343  14.7372  14.7396  17.5957
    19.5776

          k = 0.6250-0.3750 0.8750 (  1820 PWs)   bands (ev):

   -10.5011   0.9860   3.2782   4.2233  11.1777  13.2908  14.7255  17.0164
    20.8251

          k = 0.5000-0.2500 0.7500 (  1808 PWs)   bands (ev):

   -10.3607   0.7440   3.0934   4.0903  11.9364  12.4142  14.9241  16.7812
    21.9278

          k = 0.7500-0.2500 1.0000 (  1821 PWs)   bands (ev):

   -10.3985   1.1952   3.2714   3.6876  10.4763  13.9177  14.1510  17.4059
    19.4692

          k = 0.6250-0.1250 0.8750 (  1819 PWs)   bands (ev):

   -10.2574   1.3840   2.4461   3.5416  11.1607  13.5684  14.5877  16.6071
    20.4453

          k = 0.5000 0.0000 0.7500 (  1823 PWs)   bands (ev):

   -10.3023   1.3728   2.3014   3.8209  11.9088  12.9571  14.4844  16.6612
    21.7482

          k =-0.2500-1.0000 0.0000 (  1810 PWs)   bands (ev):

   -10.2212   1.2369   3.0605   3.2171  10.0632  13.6185  14.9375  17.0733
    19.5028

          k =-0.5000-1.0000 0.0000 (  1800 PWs)   bands (ev):

   -10.2065   2.0435   2.0435   2.9099  11.4091  14.4408  14.4408  15.3838
    22.3796

     the Fermi energy is    10.6227 ev

!    total energy              =     -37.72456426 Ry
     estimated scf accuracy    <       0.00000002 Ry

     The total energy is the sum of the following terms:
     one-electron contribution =      -8.31362237 Ry
     hartree contribution      =      10.12248812 Ry
     xc contribution           =     -10.48466895 Ry
     ewald contribution        =     -29.04876105 Ry

     convergence has been achieved in   7 iterations

     Forces acting on atoms (cartesian axes, Ry/au):

     atom    1 type  1   force =     0.00000000    0.00000000    0.00000000
     atom    2 type  2   force =     0.00000000    0.00000000    0.00000000

     Total force =     0.000000     Total SCF correction =     0.000000


     Computing stress (Cartesian axis) and pressure

          total   stress  (Ry/bohr**3)                   (kbar)     P=        0.33
   0.00000227   0.00000000   0.00000000            0.33        0.00        0.00
   0.00000000   0.00000227  -0.00000000            0.00        0.33       -0.00
   0.00000000  -0.00000000   0.00000227            0.00       -0.00        0.33


     Writing all to output data dir ./tmp/AlO.save/ :
     XML data file, charge density, pseudopotentials, collected wavefunctions

     init_run     :      0.81s CPU      0.82s WALL (       1 calls)
     electrons    :      6.36s CPU      6.44s WALL (       1 calls)
     forces       :      0.21s CPU      0.24s WALL (       1 calls)
     stress       :      0.66s CPU      0.68s WALL (       1 calls)

     Called by init_run:
     wfcinit      :      0.35s CPU      0.35s WALL (       1 calls)
     potinit      :      0.07s CPU      0.07s WALL (       1 calls)
     hinit0       :      0.38s CPU      0.38s WALL (       1 calls)

     Called by electrons:
     c_bands      :      5.43s CPU      5.50s WALL (       7 calls)
     sum_band     :      0.80s CPU      0.80s WALL (       7 calls)
     v_of_rho     :      0.12s CPU      0.13s WALL (       8 calls)
     mix_rho      :      0.01s CPU      0.01s WALL (       7 calls)

     Called by c_bands:
     init_us_2    :      0.24s CPU      0.25s WALL (     493 calls)
     init_us_2:cp :      0.24s CPU      0.25s WALL (     493 calls)
     cegterg      :      4.92s CPU      4.98s WALL (     203 calls)

     Called by *egterg:
     cdiaghg      :      0.07s CPU      0.07s WALL (     732 calls)
     h_psi        :      4.35s CPU      4.40s WALL (     761 calls)
     g_psi        :      0.02s CPU      0.02s WALL (     529 calls)

     Called by h_psi:
     h_psi:calbec :      0.45s CPU      0.46s WALL (     761 calls)
     vloc_psi     :      3.49s CPU      3.54s WALL (     761 calls)
     add_vuspsi   :      0.39s CPU      0.39s WALL (     761 calls)

     General routines
     calbec       :      0.60s CPU      0.61s WALL (     906 calls)
     fft          :      0.27s CPU      0.27s WALL (     104 calls)
     ffts         :      0.00s CPU      0.00s WALL (       7 calls)
     fftw         :      3.41s CPU      3.47s WALL (   11623 calls)


     PWSCF        :      8.13s CPU      8.29s WALL


   This run was terminated on:  12:15:15  16Dec2024            

=------------------------------------------------------------------------------=
   JOB DONE.
=------------------------------------------------------------------------------=
