
     Program PWSCF v.7.3 starts on 16Dec2024 at 13:25:46 

     This program is part of the open-source Quantum ESPRESSO suite
     for quantum simulation of materials; please cite
         "P. Giannozzi et al., J. Phys.:Condens. Matter 21 395502 (2009);
         "P. Giannozzi et al., J. Phys.:Condens. Matter 29 465901 (2017);
         "P. Giannozzi et al., J. Chem. Phys. 152 154105 (2020);
          URL http://www.quantum-espresso.org", 
     in publications or presentations arising from this work. More details at
     http://www.quantum-espresso.org/quote

     Serial version
     4754 MiB available memory on the printing compute node when the environment starts

     Waiting for input...
     Reading input from standard input

     Current dimensions of program PWSCF are:
     Max number of different atomic species (ntypx) = 10
     Max number of k-points (npk) =  40000
     Max angular momentum in pseudopotentials (lmaxx) =  4
     Message from routine iosys:
     BEWARE:  force calculation with tetrahedra (not recommanded)
     Message from routine iosys:
     BEWARE: stress calculation with tetrahedra (not recommanded)


     G-vector sticks info
     --------------------
     sticks:   dense  smooth     PW     G-vecs:    dense   smooth      PW
     Sum        1361    1361    401                37993    37993    6031

     Using Slab Decomposition



     bravais-lattice index     =            1
     lattice parameter (alat)  =       8.4530  a.u.
     unit-cell volume          =     603.9940 (a.u.)^3
     number of atoms/cell      =            7
     number of atomic types    =            2
     number of electrons       =        33.00
     number of Kohn-Sham states=           21
     kinetic-energy cutoff     =      60.0000  Ry
     charge density cutoff     =     240.0000  Ry
     scf convergence threshold =      1.0E-03
     mixing beta               =       0.4000
     number of iterations used =            8  plain     mixing
     Exchange-correlation= PBE
                           (   1   4   3   4   0   0   0)

     celldm(1)=   8.453000  celldm(2)=   0.000000  celldm(3)=   0.000000
     celldm(4)=   0.000000  celldm(5)=   0.000000  celldm(6)=   0.000000

     crystal axes: (cart. coord. in units of alat)
               a(1) = (   1.000000   0.000000   0.000000 )  
               a(2) = (   0.000000   1.000000   0.000000 )  
               a(3) = (   0.000000   0.000000   1.000000 )  

     reciprocal axes: (cart. coord. in units 2 pi/alat)
               b(1) = (  1.000000  0.000000  0.000000 )  
               b(2) = (  0.000000  1.000000  0.000000 )  
               b(3) = (  0.000000  0.000000  1.000000 )  


     PseudoPot. # 1 for Al read from file:
     ./PSEUDO/Al_ONCV_PBE_sr.upf
     MD5 check sum: 71949a6c272e6faf888e318530e21af5
     Pseudo is Norm-conserving + core correction, Zval =  3.0
     Generated using ONCVPSP code by D. R. Hamann
     Using radial grid of 1876 points,  6 beta functions with: 
                l(1) =   0
                l(2) =   0
                l(3) =   1
                l(4) =   1
                l(5) =   2
                l(6) =   2

     PseudoPot. # 2 for O  read from file:
     ./PSEUDO/O_ONCV_PBE_sr.upf
     MD5 check sum: b0122293cc47a814ad0627188f9a6d95
     Pseudo is Norm-conserving + core correction, Zval =  6.0
     Generated using ONCVPSP code by D. R. Hamann
     Using radial grid of  936 points,  5 beta functions with: 
                l(1) =   0
                l(2) =   0
                l(3) =   1
                l(4) =   1
                l(5) =   2

     atomic species   valence    mass     pseudopotential
     Al                3.00    26.98200     Al( 1.00)
     O                 6.00    15.99900     O ( 1.00)

     48 Sym. Ops., with inversion, found



   Cartesian axes

     site n.     atom                  positions (alat units)
         1        Al     tau(   1) = (   0.0000000   0.5000000   0.5000000  )
         2        Al     tau(   2) = (   0.5000000   0.0000000   0.5000000  )
         3        Al     tau(   3) = (   0.5000000   0.5000000   0.0000000  )
         4        O      tau(   4) = (   0.5000000   0.5000000   0.5000000  )
         5        O      tau(   5) = (   0.5000000   0.0000000   0.0000000  )
         6        O      tau(   6) = (   0.0000000   0.5000000   0.0000000  )
         7        O      tau(   7) = (   0.0000000   0.0000000   0.5000000  )

     number of k points=     4 (tetrahedron method)
                       cart. coord. in units 2pi/alat
        k(    1) = (   0.0000000   0.0000000   0.0000000), wk =   0.2500000
        k(    2) = (   0.0000000   0.0000000  -0.5000000), wk =   0.7500000
        k(    3) = (   0.0000000  -0.5000000  -0.5000000), wk =   0.7500000
        k(    4) = (  -0.5000000  -0.5000000  -0.5000000), wk =   0.2500000

     Dense  grid:    37993 G-vectors     FFT dimensions: (  45,  45,  45)

     Estimated max dynamical RAM per process >      47.15 MB

     Check: negative core charge=   -0.000027

     Initial potential from superposition of free atoms

     starting charge      32.9926, renormalised to      33.0000
     Starting wfcs are   28 randomized atomic wfcs

     total cpu time spent up to now is        1.2 secs

     Self-consistent Calculation

     iteration #  1     ecut=    60.00 Ry     beta= 0.40
     Davidson diagonalization with overlap
     ethr =  1.00E-02,  avg # of iterations =  2.2

     total cpu time spent up to now is        2.6 secs

     total energy              =    -145.95053260 Ry
     estimated scf accuracy    <       1.66543817 Ry

     iteration #  2     ecut=    60.00 Ry     beta= 0.40
     Davidson diagonalization with overlap
     ethr =  5.05E-03,  avg # of iterations =  2.0

     total cpu time spent up to now is        3.8 secs

     total energy              =    -146.40694792 Ry
     estimated scf accuracy    <       0.22834155 Ry

     iteration #  3     ecut=    60.00 Ry     beta= 0.40
     Davidson diagonalization with overlap
     ethr =  6.92E-04,  avg # of iterations =  2.0

     total cpu time spent up to now is        5.0 secs

     total energy              =    -146.42635226 Ry
     estimated scf accuracy    <       0.03421699 Ry

     iteration #  4     ecut=    60.00 Ry     beta= 0.40
     Davidson diagonalization with overlap
     ethr =  1.04E-04,  avg # of iterations =  2.0

     total cpu time spent up to now is        7.0 secs

     total energy              =    -146.43251859 Ry
     estimated scf accuracy    <       0.00956396 Ry

     iteration #  5     ecut=    60.00 Ry     beta= 0.40
     Davidson diagonalization with overlap
     ethr =  2.90E-05,  avg # of iterations =  2.5

     total cpu time spent up to now is        8.7 secs

     total energy              =    -146.43268308 Ry
     estimated scf accuracy    <       0.00136267 Ry

     iteration #  6     ecut=    60.00 Ry     beta= 0.40
     Davidson diagonalization with overlap
     ethr =  4.13E-06,  avg # of iterations =  5.0

     total cpu time spent up to now is       10.4 secs

     End of self-consistent calculation

          k = 0.0000 0.0000 0.0000 (  4729 PWs)   bands (ev):

   -14.4113 -11.8479 -11.1785 -11.1785  -1.1876  -1.1876  -1.1876   2.0073
     2.0073   2.0073   2.1433   2.1433   2.1433   3.8922   4.6247   4.6247
     4.6247   6.4471   6.4471  13.2654  13.2660

          k = 0.0000 0.0000-0.5000 (  4748 PWs)   bands (ev):

   -14.3128 -11.7416 -11.4219 -11.1425  -0.9658  -0.8393  -0.8393   0.3847
     1.2655   1.3947   1.3947   2.2035   2.2036   3.8835   4.3825   4.3825
     7.3084   7.5651   9.0156  12.2596  12.4696

          k = 0.0000-0.5000-0.5000 (  4780 PWs)   bands (ev):

   -14.2492 -11.4499 -11.4499 -11.4026  -1.5958  -1.5958  -0.5255  -0.4844
     1.6128   1.6128   2.2984   2.2984   2.9409   3.0741   3.9959   4.9471
     8.9127   9.3505   9.3506  10.0041  10.7221

          k =-0.5000-0.5000-0.5000 (  4680 PWs)   bands (ev):

   -14.2118 -11.3917 -11.3917 -11.3917  -2.3028  -2.3028  -2.3028   1.9324
     1.9324   1.9324   2.2711   3.1127   3.1127   3.1127   4.9852   4.9852
     7.3987   9.0874   9.0875   9.0876  11.2637

     the Fermi energy is     7.4657 ev

!    total energy              =    -146.43257859 Ry
     estimated scf accuracy    <       0.00077060 Ry

     The total energy is the sum of the following terms:
     one-electron contribution =     -43.66586047 Ry
     hartree contribution      =      41.33257503 Ry
     xc contribution           =     -39.28745298 Ry
     ewald contribution        =    -104.81184017 Ry

     convergence has been achieved in   6 iterations

     Forces acting on atoms (cartesian axes, Ry/au):

     atom    1 type  1   force =     0.00000000    0.00000000    0.00000000
     atom    2 type  1   force =     0.00000000    0.00000000    0.00000000
     atom    3 type  1   force =     0.00000000    0.00000000    0.00000000
     atom    4 type  2   force =     0.00000000    0.00000000    0.00000000
     atom    5 type  2   force =     0.00000000    0.00000000    0.00000000
     atom    6 type  2   force =     0.00000000    0.00000000    0.00000000
     atom    7 type  2   force =     0.00000000    0.00000000    0.00000000

     Total force =     0.000000     Total SCF correction =     0.000000


     Computing stress (Cartesian axis) and pressure

          total   stress  (Ry/bohr**3)                   (kbar)     P=     -398.17
  -0.00270671   0.00000000   0.00000000         -398.17        0.00        0.00
   0.00000000  -0.00270671   0.00000000            0.00     -398.17        0.00
   0.00000000   0.00000000  -0.00270671            0.00        0.00     -398.17


     Writing all to output data dir ./tmp/AlO.save/ :
     XML data file, charge density, pseudopotentials, collected wavefunctions

     init_run     :      1.11s CPU      1.14s WALL (       1 calls)
     electrons    :      9.12s CPU      9.18s WALL (       1 calls)
     forces       :      0.89s CPU      0.89s WALL (       1 calls)
     stress       :      1.64s CPU      1.66s WALL (       1 calls)

     Called by init_run:
     wfcinit      :      0.61s CPU      0.61s WALL (       1 calls)
     potinit      :      0.10s CPU      0.11s WALL (       1 calls)
     hinit0       :      0.38s CPU      0.40s WALL (       1 calls)

     Called by electrons:
     c_bands      :      7.95s CPU      7.98s WALL (       6 calls)
     sum_band     :      0.88s CPU      0.88s WALL (       6 calls)
     v_of_rho     :      0.29s CPU      0.31s WALL (       7 calls)
     mix_rho      :      0.03s CPU      0.04s WALL (       6 calls)

     Called by c_bands:
     init_us_2    :      0.19s CPU      0.19s WALL (      60 calls)
     init_us_2:cp :      0.19s CPU      0.19s WALL (      60 calls)
     cegterg      :      7.46s CPU      7.48s WALL (      24 calls)

     Called by *egterg:
     cdiaghg      :      0.04s CPU      0.04s WALL (      87 calls)
     h_psi        :      6.25s CPU      6.27s WALL (      91 calls)
     g_psi        :      0.01s CPU      0.02s WALL (      63 calls)

     Called by h_psi:
     h_psi:calbec :      1.42s CPU      1.42s WALL (      91 calls)
     vloc_psi     :      3.56s CPU      3.58s WALL (      91 calls)
     add_vuspsi   :      1.25s CPU      1.25s WALL (      91 calls)

     General routines
     calbec       :      2.19s CPU      2.19s WALL (     111 calls)
     fft          :      0.34s CPU      0.35s WALL (      94 calls)
     ffts         :      0.01s CPU      0.01s WALL (       6 calls)
     fftw         :      3.62s CPU      3.65s WALL (    3234 calls)


     PWSCF        :     12.82s CPU     12.95s WALL


   This run was terminated on:  13:25:59  16Dec2024            

=------------------------------------------------------------------------------=
   JOB DONE.
=------------------------------------------------------------------------------=
