
     Program PWSCF v.7.3 starts on 18Nov2024 at 10: 2: 9 

     This program is part of the open-source Quantum ESPRESSO suite
     for quantum simulation of materials; please cite
         "P. Giannozzi et al., J. Phys.:Condens. Matter 21 395502 (2009);
         "P. Giannozzi et al., J. Phys.:Condens. Matter 29 465901 (2017);
         "P. Giannozzi et al., J. Chem. Phys. 152 154105 (2020);
          URL http://www.quantum-espresso.org", 
     in publications or presentations arising from this work. More details at
     http://www.quantum-espresso.org/quote

     Serial version
     6957 MiB available memory on the printing compute node when the environment starts

     Waiting for input...
     Reading input from standard input

     Current dimensions of program PWSCF are:
     Max number of different atomic species (ntypx) = 10
     Max number of k-points (npk) =  40000
     Max angular momentum in pseudopotentials (lmaxx) =  4


     G-vector sticks info
     --------------------
     sticks:   dense  smooth     PW     G-vecs:    dense   smooth      PW
     Sum         769     769    241                14361    14361    2421

     Using Slab Decomposition



     bravais-lattice index     =            2
     lattice parameter (alat)  =       8.4300  a.u.
     unit-cell volume          =     149.7693 (a.u.)^3
     number of atoms/cell      =            1
     number of atomic types    =            1
     number of electrons       =         8.00
     number of Kohn-Sham states=            4
     kinetic-energy cutoff     =      80.0000  Ry
     charge density cutoff     =     320.0000  Ry
     scf convergence threshold =      1.0E-06
     mixing beta               =       0.7000
     number of iterations used =            8  plain     mixing
     Exchange-correlation= SLA  PW   NOGX NOGC
                           (   1   4   0   0   0   0   0)

     celldm(1)=   8.430000  celldm(2)=   0.000000  celldm(3)=   0.000000
     celldm(4)=   0.000000  celldm(5)=   0.000000  celldm(6)=   0.000000

     crystal axes: (cart. coord. in units of alat)
               a(1) = (  -0.500000   0.000000   0.500000 )  
               a(2) = (   0.000000   0.500000   0.500000 )  
               a(3) = (  -0.500000   0.500000   0.000000 )  

     reciprocal axes: (cart. coord. in units 2 pi/alat)
               b(1) = ( -1.000000 -1.000000  1.000000 )  
               b(2) = (  1.000000  1.000000  1.000000 )  
               b(3) = ( -1.000000  1.000000 -1.000000 )  


     PseudoPot. # 1 for Ne read from file:
     ./PSEUDO/Ne.LDA.upf
     MD5 check sum: 4fe887f722f2cdc4cea4a66ab59ea4d3
     Pseudo is Norm-conserving, Zval =  8.0
     Generated using ONCVPSP code by D. R. Hamann
     Using radial grid of  750 points,  4 beta functions with: 
                l(1) =   0
                l(2) =   0
                l(3) =   1
                l(4) =   1

     atomic species   valence    mass     pseudopotential
     Ne                8.00    20.18000     Ne( 1.00)

     48 Sym. Ops., with inversion, found



   Cartesian axes

     site n.     atom                  positions (alat units)
         1        Ne     tau(   1) = (   0.0000000   0.0000000   0.0000000  )

     number of k points=     8
                       cart. coord. in units 2pi/alat
        k(    1) = (   0.0000000   0.0000000   0.0000000), wk =   0.0312500
        k(    2) = (  -0.2500000   0.2500000  -0.2500000), wk =   0.2500000
        k(    3) = (   0.5000000  -0.5000000   0.5000000), wk =   0.1250000
        k(    4) = (   0.0000000   0.5000000   0.0000000), wk =   0.1875000
        k(    5) = (   0.7500000  -0.2500000   0.7500000), wk =   0.7500000
        k(    6) = (   0.5000000   0.0000000   0.5000000), wk =   0.3750000
        k(    7) = (   0.0000000  -1.0000000   0.0000000), wk =   0.0937500
        k(    8) = (  -0.5000000  -1.0000000   0.0000000), wk =   0.1875000

     Dense  grid:    14361 G-vectors     FFT dimensions: (  36,  36,  36)

     Estimated max dynamical RAM per process >      11.25 MB

     Initial potential from superposition of free atoms

     starting charge       8.0000, renormalised to       8.0000
     Starting wfcs are    4 randomized atomic wfcs

     total cpu time spent up to now is        0.5 secs

     Self-consistent Calculation

     iteration #  1     ecut=    80.00 Ry     beta= 0.70
     Davidson diagonalization with overlap
     ethr =  1.00E-02,  avg # of iterations =  1.0

     Threshold (ethr) on eigenvalues was too large:
     Diagonalizing with lowered threshold

     Davidson diagonalization with overlap
     ethr =  3.68E-07,  avg # of iterations =  3.0

     total cpu time spent up to now is        0.7 secs

     total energy              =     -66.77614443 Ry
     estimated scf accuracy    <       0.00004092 Ry

     iteration #  2     ecut=    80.00 Ry     beta= 0.70
     Davidson diagonalization with overlap
     ethr =  5.11E-07,  avg # of iterations =  2.0

     total cpu time spent up to now is        0.8 secs

     total energy              =     -66.77615546 Ry
     estimated scf accuracy    <       0.00000688 Ry

     iteration #  3     ecut=    80.00 Ry     beta= 0.70
     Davidson diagonalization with overlap
     ethr =  8.59E-08,  avg # of iterations =  2.0

     total cpu time spent up to now is        0.8 secs

     End of self-consistent calculation

          k = 0.0000 0.0000 0.0000 (  1837 PWs)   bands (ev):

   -32.3788  -9.4350  -9.4350  -9.4350

          k =-0.2500 0.2500-0.2500 (  1820 PWs)   bands (ev):

   -32.3355  -9.8090  -9.4716  -9.4716

          k = 0.5000-0.5000 0.5000 (  1802 PWs)   bands (ev):

   -32.2918 -10.1453  -9.5077  -9.5077

          k = 0.0000 0.5000 0.0000 (  1812 PWs)   bands (ev):

   -32.3214  -9.7942  -9.5437  -9.5437

          k = 0.7500-0.2500 0.7500 (  1804 PWs)   bands (ev):

   -32.2781 -10.0078  -9.6888  -9.5803

          k = 0.5000 0.0000 0.5000 (  1812 PWs)   bands (ev):

   -32.2923  -9.9449  -9.7042  -9.5087

          k = 0.0000-1.0000 0.0000 (  1772 PWs)   bands (ev):

   -32.2643 -10.0718  -9.6521  -9.6521

          k =-0.5000-1.0000 0.0000 (  1800 PWs)   bands (ev):

   -32.2639  -9.8636  -9.8636  -9.6729

     highest occupied level (ev):    -9.4350

!    total energy              =     -66.77615672 Ry
     estimated scf accuracy    <       0.00000012 Ry

     The total energy is the sum of the following terms:
     one-electron contribution =     -47.28144202 Ry
     hartree contribution      =      26.41484359 Ry
     xc contribution           =     -11.10158999 Ry
     ewald contribution        =     -34.80796830 Ry

     convergence has been achieved in   3 iterations

     Forces acting on atoms (cartesian axes, Ry/au):

     atom    1 type  1   force =     0.00000000    0.00000000    0.00000000

     Total force =     0.000000     Total SCF correction =     0.000000


     Computing stress (Cartesian axis) and pressure

          total   stress  (Ry/bohr**3)                   (kbar)     P=       -7.38
  -0.00005020   0.00000000   0.00000000           -7.38        0.00        0.00
   0.00000000  -0.00005020  -0.00000000            0.00       -7.38       -0.00
   0.00000000  -0.00000000  -0.00005020            0.00       -0.00       -7.38


     Writing all to output data dir ./tmp/neon.save/ :
     XML data file, charge density, pseudopotentials, collected wavefunctions

     init_run     :      0.38s CPU      0.42s WALL (       1 calls)
     electrons    :      0.38s CPU      0.39s WALL (       1 calls)
     forces       :      0.01s CPU      0.01s WALL (       1 calls)
     stress       :      0.05s CPU      0.05s WALL (       1 calls)

     Called by init_run:
     wfcinit      :      0.15s CPU      0.16s WALL (       1 calls)
     potinit      :      0.03s CPU      0.03s WALL (       1 calls)
     hinit0       :      0.20s CPU      0.21s WALL (       1 calls)

     Called by electrons:
     c_bands      :      0.30s CPU      0.31s WALL (       4 calls)
     sum_band     :      0.06s CPU      0.06s WALL (       4 calls)
     v_of_rho     :      0.02s CPU      0.02s WALL (       4 calls)
     mix_rho      :      0.00s CPU      0.00s WALL (       4 calls)

     Called by c_bands:
     init_us_2    :      0.02s CPU      0.02s WALL (      88 calls)
     init_us_2:cp :      0.02s CPU      0.02s WALL (      88 calls)
     cegterg      :      0.28s CPU      0.29s WALL (      32 calls)

     Called by *egterg:
     cdiaghg      :      0.00s CPU      0.00s WALL (      88 calls)
     h_psi        :      0.39s CPU      0.40s WALL (     104 calls)
     g_psi        :      0.00s CPU      0.00s WALL (      64 calls)

     Called by h_psi:
     h_psi:calbec :      0.01s CPU      0.01s WALL (     104 calls)
     vloc_psi     :      0.37s CPU      0.38s WALL (     104 calls)
     add_vuspsi   :      0.01s CPU      0.01s WALL (     104 calls)

     General routines
     calbec       :      0.01s CPU      0.01s WALL (     144 calls)
     fft          :      0.16s CPU      0.16s WALL (      17 calls)
     ffts         :      0.00s CPU      0.00s WALL (       4 calls)
     fftw         :      0.37s CPU      0.37s WALL (     960 calls)


     PWSCF        :      0.83s CPU      0.93s WALL


   This run was terminated on:  10: 2:10  18Nov2024            

=------------------------------------------------------------------------------=
   JOB DONE.
=------------------------------------------------------------------------------=
