
     Program PWSCF v.7.3 starts on  2Dec2024 at 11:38: 3 

     This program is part of the open-source Quantum ESPRESSO suite
     for quantum simulation of materials; please cite
         "P. Giannozzi et al., J. Phys.:Condens. Matter 21 395502 (2009);
         "P. Giannozzi et al., J. Phys.:Condens. Matter 29 465901 (2017);
         "P. Giannozzi et al., J. Chem. Phys. 152 154105 (2020);
          URL http://www.quantum-espresso.org", 
     in publications or presentations arising from this work. More details at
     http://www.quantum-espresso.org/quote

     Serial version
     5869 MiB available memory on the printing compute node when the environment starts

     Waiting for input...
     Reading input from standard input
     Message from routine read_cards :
     DEPRECATED: no units specified in ATOMIC_POSITIONS card
     Message from routine read_cards :
     ATOMIC_POSITIONS: units set to alat

     Current dimensions of program PWSCF are:
     Max number of different atomic species (ntypx) = 10
     Max number of k-points (npk) =  40000
     Max angular momentum in pseudopotentials (lmaxx) =  4
     Message from routine iosys:
     BEWARE:  force calculation with tetrahedra (not recommanded)
     [opt_tetra]  Optimized tetrahedron method is used.


     G-vector sticks info
     --------------------
     sticks:   dense  smooth     PW     G-vecs:    dense   smooth      PW
     Sum         583     583    187                 9257     9257    1591

     Using Slab Decomposition



     bravais-lattice index     =            2
     lattice parameter (alat)  =      10.2600  a.u.
     unit-cell volume          =     270.0114 (a.u.)^3
     number of atoms/cell      =            2
     number of atomic types    =            1
     number of electrons       =         8.00
     number of Kohn-Sham states=            8
     kinetic-energy cutoff     =      40.0000  Ry
     charge density cutoff     =     160.0000  Ry
     scf convergence threshold =      1.0E-06
     mixing beta               =       0.7000
     number of iterations used =            8  plain     mixing
     Exchange-correlation= SLA  PW   NOGX NOGC
                           (   1   4   0   0   0   0   0)

     celldm(1)=  10.260000  celldm(2)=   0.000000  celldm(3)=   0.000000
     celldm(4)=   0.000000  celldm(5)=   0.000000  celldm(6)=   0.000000

     crystal axes: (cart. coord. in units of alat)
               a(1) = (  -0.500000   0.000000   0.500000 )  
               a(2) = (   0.000000   0.500000   0.500000 )  
               a(3) = (  -0.500000   0.500000   0.000000 )  

     reciprocal axes: (cart. coord. in units 2 pi/alat)
               b(1) = ( -1.000000 -1.000000  1.000000 )  
               b(2) = (  1.000000  1.000000  1.000000 )  
               b(3) = ( -1.000000  1.000000 -1.000000 )  


     PseudoPot. # 1 for Si read from file:
     ./PSEUDO/Si.LDA.upf
     MD5 check sum: 9e2d726316af3d4752eea8ab0afbb951
     Pseudo is Norm-conserving + core correction, Zval =  4.0
     Generated using ONCVPSP code by D. R. Hamann
     Using radial grid of 1510 points,  6 beta functions with: 
                l(1) =   0
                l(2) =   0
                l(3) =   1
                l(4) =   1
                l(5) =   2
                l(6) =   2

     atomic species   valence    mass     pseudopotential
     Si                4.00    28.76000     Si( 1.00)

      4 Sym. Ops. (no inversion) found



   Cartesian axes

     site n.     atom                  positions (alat units)
         1        Si     tau(   1) = (   0.0400000   0.0000000   0.0000000  )
         2        Si     tau(   2) = (   0.2500000   0.2500000   0.2500000  )

     number of k points=    18 (tetrahedron method)
                       cart. coord. in units 2pi/alat
        k(    1) = (   0.0000000   0.0000000   0.0000000), wk =   0.0312500
        k(    2) = (  -0.2500000   0.2500000  -0.2500000), wk =   0.1250000
        k(    3) = (   0.5000000  -0.5000000   0.5000000), wk =   0.0625000
        k(    4) = (   0.0000000   0.5000000   0.0000000), wk =   0.1250000
        k(    5) = (   0.7500000  -0.2500000   0.7500000), wk =   0.2500000
        k(    6) = (   0.5000000   0.0000000   0.5000000), wk =   0.2500000
        k(    7) = (   0.0000000  -1.0000000   0.0000000), wk =   0.0625000
        k(    8) = (  -0.5000000  -1.0000000   0.0000000), wk =   0.0625000
        k(    9) = (  -0.2500000   0.2500000   0.2500000), wk =   0.1250000
        k(   10) = (   0.5000000  -0.5000000  -0.5000000), wk =   0.0625000
        k(   11) = (   0.5000000   0.0000000   0.0000000), wk =   0.0625000
        k(   12) = (  -0.2500000   0.7500000  -0.7500000), wk =   0.1250000
        k(   13) = (   0.2500000  -0.7500000  -0.7500000), wk =   0.1250000
        k(   14) = (   0.7500000   0.2500000   0.7500000), wk =   0.2500000
        k(   15) = (   0.0000000   0.5000000  -0.5000000), wk =   0.0625000
        k(   16) = (   0.0000000  -0.5000000  -0.5000000), wk =   0.0625000
        k(   17) = (  -1.0000000   0.0000000   0.0000000), wk =   0.0312500
        k(   18) = (  -1.0000000  -0.5000000   0.0000000), wk =   0.1250000

     Dense  grid:     9257 G-vectors     FFT dimensions: (  30,  30,  30)

     Estimated max dynamical RAM per process >      10.61 MB

     Initial potential from superposition of free atoms

     starting charge       7.9989, renormalised to       8.0000
     Starting wfcs are    8 randomized atomic wfcs

     total cpu time spent up to now is        0.6 secs

     Self-consistent Calculation

     iteration #  1     ecut=    40.00 Ry     beta= 0.70
     Davidson diagonalization with overlap
     ethr =  1.00E-02,  avg # of iterations =  4.4

     Threshold (ethr) on eigenvalues was too large:
     Diagonalizing with lowered threshold

     Davidson diagonalization with overlap
     ethr =  7.61E-04,  avg # of iterations =  1.4

     total cpu time spent up to now is        1.4 secs

     total energy              =     -17.00931770 Ry
     estimated scf accuracy    <       0.06531044 Ry

     iteration #  2     ecut=    40.00 Ry     beta= 0.70
     Davidson diagonalization with overlap
     ethr =  8.16E-04,  avg # of iterations =  1.0

     total cpu time spent up to now is        1.8 secs

     total energy              =     -17.01304890 Ry
     estimated scf accuracy    <       0.00195598 Ry

     iteration #  3     ecut=    40.00 Ry     beta= 0.70
     Davidson diagonalization with overlap
     ethr =  2.44E-05,  avg # of iterations =  4.5

     total cpu time spent up to now is        2.2 secs

     total energy              =     -17.01319985 Ry
     estimated scf accuracy    <       0.00005214 Ry

     iteration #  4     ecut=    40.00 Ry     beta= 0.70
     Davidson diagonalization with overlap
     ethr =  6.52E-07,  avg # of iterations =  4.0

     total cpu time spent up to now is        2.7 secs

     End of self-consistent calculation

          k = 0.0000 0.0000 0.0000 (  1139 PWs)   bands (ev):

    -5.9441   5.0578   6.1963   7.1182   7.9768   8.4264   9.1856   9.1950

          k =-0.2500 0.2500-0.2500 (  1152 PWs)   bands (ev):

    -5.1839   2.4290   4.5324   5.8009   7.7662   8.8248   9.9621  12.8440

          k = 0.5000-0.5000 0.5000 (  1158 PWs)   bands (ev):

    -3.8493  -0.4449   4.1672   5.4009   7.3093   8.5250   9.7703  13.3117

          k = 0.0000 0.5000 0.0000 (  1174 PWs)   bands (ev):

    -4.8684   2.2464   4.2274   4.4453   7.0338   8.9751  11.5980  11.8735

          k = 0.7500-0.2500 0.7500 (  1150 PWs)   bands (ev):

    -3.3971   0.0960   2.0935   4.0114   7.4218  10.2163  11.3355  12.0248

          k = 0.5000 0.0000 0.5000 (  1159 PWs)   bands (ev):

    -3.9258   0.5289   2.2372   4.8621   8.2821  10.7083  11.0468  12.0026

          k = 0.0000-1.0000 0.0000 (  1162 PWs)   bands (ev):

    -1.8430  -1.8430   3.2974   3.2975   6.5860   6.5860  16.1632  16.1641

          k =-0.5000-1.0000 0.0000 (  1144 PWs)   bands (ev):

    -1.6862  -1.6862   2.2560   2.2561   9.9477   9.9477  11.2424  11.2424

          k =-0.2500 0.2500 0.2500 (  1152 PWs)   bands (ev):

    -5.1173   1.7166   5.0545   5.9543   8.0844   9.1520  10.1877  12.5504

          k = 0.5000-0.5000-0.5000 (  1158 PWs)   bands (ev):

    -3.3702  -1.4654   4.5558   5.4839   7.5621   8.8768  10.1954  13.6699

          k = 0.5000 0.0000 0.0000 (  1174 PWs)   bands (ev):

    -4.8794   2.6173   3.6455   4.5412   6.9314   9.2496  11.8160  11.8837

          k =-0.2500 0.7500-0.7500 (  1150 PWs)   bands (ev):

    -3.4166   0.0330   2.8013   3.3587   6.9347  10.8706  11.6701  12.1271

          k = 0.2500-0.7500-0.7500 (  1150 PWs)   bands (ev):

    -3.1605  -0.5623   2.2351   4.2260   7.9977   9.8392  11.6874  11.8483

          k = 0.7500 0.2500 0.7500 (  1150 PWs)   bands (ev):

    -3.0865  -0.8331   2.8129   3.9504   7.3635  10.2897  11.7496  12.4741

          k = 0.0000 0.5000-0.5000 (  1159 PWs)   bands (ev):

    -4.0657   1.2593   2.2541   4.0839   7.8578  10.8937  11.3809  12.2671

          k = 0.0000-0.5000-0.5000 (  1159 PWs)   bands (ev):

    -3.7577  -0.1098   2.3754   5.2777   8.9715  10.1984  11.3248  11.7085

          k =-1.0000 0.0000 0.0000 (  1162 PWs)   bands (ev):

    -2.4202  -1.0781   2.7896   3.5055   6.1410   7.1598  15.8359  16.1596

          k =-1.0000-0.5000 0.0000 (  1144 PWs)   bands (ev):

    -2.1309  -1.1203   1.8875   2.4770   9.6318  10.6610  10.9286  11.0792

     the Fermi energy is     6.5986 ev

!    total energy              =     -17.01321231 Ry
     estimated scf accuracy    <       0.00000039 Ry

     The total energy is the sum of the following terms:
     one-electron contribution =       4.83517567 Ry
     hartree contribution      =       1.12041284 Ry
     xc contribution           =      -6.20888754 Ry
     ewald contribution        =     -16.75991328 Ry

     convergence has been achieved in   4 iterations

     Forces acting on atoms (cartesian axes, Ry/au):

     atom    1 type  1   force =    -0.10759200   -0.00000000    0.00000000
     atom    2 type  1   force =     0.10759200    0.00000000   -0.00000000

     Total force =     0.152158     Total SCF correction =     0.000205

     Writing all to output data dir ./tmp/cubicmHF.save/ :
     XML data file, charge density, pseudopotentials, collected wavefunctions

     init_run     :      0.55s CPU      0.56s WALL (       1 calls)
     electrons    :      2.09s CPU      2.13s WALL (       1 calls)
     forces       :      0.05s CPU      0.05s WALL (       1 calls)

     Called by init_run:
     wfcinit      :      0.20s CPU      0.21s WALL (       1 calls)
     potinit      :      0.04s CPU      0.04s WALL (       1 calls)
     hinit0       :      0.30s CPU      0.30s WALL (       1 calls)

     Called by electrons:
     c_bands      :      1.84s CPU      1.87s WALL (       5 calls)
     sum_band     :      0.24s CPU      0.25s WALL (       5 calls)
     v_of_rho     :      0.02s CPU      0.02s WALL (       5 calls)
     mix_rho      :      0.00s CPU      0.00s WALL (       5 calls)

     Called by c_bands:
     init_us_2    :      0.06s CPU      0.07s WALL (     216 calls)
     init_us_2:cp :      0.06s CPU      0.06s WALL (     216 calls)
     cegterg      :      1.62s CPU      1.65s WALL (      90 calls)

     Called by *egterg:
     cdiaghg      :      0.04s CPU      0.04s WALL (     347 calls)
     h_psi        :      1.51s CPU      1.55s WALL (     383 calls)
     g_psi        :      0.01s CPU      0.01s WALL (     275 calls)

     Called by h_psi:
     h_psi:calbec :      0.18s CPU      0.18s WALL (     383 calls)
     vloc_psi     :      1.20s CPU      1.22s WALL (     383 calls)
     add_vuspsi   :      0.13s CPU      0.14s WALL (     383 calls)

     General routines
     calbec       :      0.21s CPU      0.21s WALL (     455 calls)
     fft          :      0.23s CPU      0.23s WALL (      19 calls)
     ffts         :      0.00s CPU      0.00s WALL (       5 calls)
     fftw         :      1.14s CPU      1.17s WALL (    4912 calls)


     PWSCF        :      2.73s CPU      2.79s WALL


   This run was terminated on:  11:38: 6   2Dec2024            

=------------------------------------------------------------------------------=
   JOB DONE.
=------------------------------------------------------------------------------=
