
     Program PWSCF v.7.3 starts on  2Dec2024 at 11:38: 6 

     This program is part of the open-source Quantum ESPRESSO suite
     for quantum simulation of materials; please cite
         "P. Giannozzi et al., J. Phys.:Condens. Matter 21 395502 (2009);
         "P. Giannozzi et al., J. Phys.:Condens. Matter 29 465901 (2017);
         "P. Giannozzi et al., J. Chem. Phys. 152 154105 (2020);
          URL http://www.quantum-espresso.org", 
     in publications or presentations arising from this work. More details at
     http://www.quantum-espresso.org/quote

     Serial version
     5868 MiB available memory on the printing compute node when the environment starts

     Waiting for input...
     Reading input from standard input
     Message from routine read_cards :
     DEPRECATED: no units specified in ATOMIC_POSITIONS card
     Message from routine read_cards :
     ATOMIC_POSITIONS: units set to alat

     Current dimensions of program PWSCF are:
     Max number of different atomic species (ntypx) = 10
     Max number of k-points (npk) =  40000
     Max angular momentum in pseudopotentials (lmaxx) =  4
     Message from routine iosys:
     BEWARE:  force calculation with tetrahedra (not recommanded)
     [opt_tetra]  Optimized tetrahedron method is used.


     G-vector sticks info
     --------------------
     sticks:   dense  smooth     PW     G-vecs:    dense   smooth      PW
     Sum         583     583    187                 9257     9257    1591

     Using Slab Decomposition



     bravais-lattice index     =            2
     lattice parameter (alat)  =      10.2600  a.u.
     unit-cell volume          =     270.0114 (a.u.)^3
     number of atoms/cell      =            2
     number of atomic types    =            1
     number of electrons       =         8.00
     number of Kohn-Sham states=            8
     kinetic-energy cutoff     =      40.0000  Ry
     charge density cutoff     =     160.0000  Ry
     scf convergence threshold =      1.0E-06
     mixing beta               =       0.7000
     number of iterations used =            8  plain     mixing
     Exchange-correlation= SLA  PW   NOGX NOGC
                           (   1   4   0   0   0   0   0)

     celldm(1)=  10.260000  celldm(2)=   0.000000  celldm(3)=   0.000000
     celldm(4)=   0.000000  celldm(5)=   0.000000  celldm(6)=   0.000000

     crystal axes: (cart. coord. in units of alat)
               a(1) = (  -0.500000   0.000000   0.500000 )  
               a(2) = (   0.000000   0.500000   0.500000 )  
               a(3) = (  -0.500000   0.500000   0.000000 )  

     reciprocal axes: (cart. coord. in units 2 pi/alat)
               b(1) = ( -1.000000 -1.000000  1.000000 )  
               b(2) = (  1.000000  1.000000  1.000000 )  
               b(3) = ( -1.000000  1.000000 -1.000000 )  


     PseudoPot. # 1 for Si read from file:
     ./PSEUDO/Si.LDA.upf
     MD5 check sum: 9e2d726316af3d4752eea8ab0afbb951
     Pseudo is Norm-conserving + core correction, Zval =  4.0
     Generated using ONCVPSP code by D. R. Hamann
     Using radial grid of 1510 points,  6 beta functions with: 
                l(1) =   0
                l(2) =   0
                l(3) =   1
                l(4) =   1
                l(5) =   2
                l(6) =   2

     atomic species   valence    mass     pseudopotential
     Si                4.00    28.76000     Si( 1.00)

      4 Sym. Ops. (no inversion) found



   Cartesian axes

     site n.     atom                  positions (alat units)
         1        Si     tau(   1) = (   0.0600000   0.0000000   0.0000000  )
         2        Si     tau(   2) = (   0.2500000   0.2500000   0.2500000  )

     number of k points=    18 (tetrahedron method)
                       cart. coord. in units 2pi/alat
        k(    1) = (   0.0000000   0.0000000   0.0000000), wk =   0.0312500
        k(    2) = (  -0.2500000   0.2500000  -0.2500000), wk =   0.1250000
        k(    3) = (   0.5000000  -0.5000000   0.5000000), wk =   0.0625000
        k(    4) = (   0.0000000   0.5000000   0.0000000), wk =   0.1250000
        k(    5) = (   0.7500000  -0.2500000   0.7500000), wk =   0.2500000
        k(    6) = (   0.5000000   0.0000000   0.5000000), wk =   0.2500000
        k(    7) = (   0.0000000  -1.0000000   0.0000000), wk =   0.0625000
        k(    8) = (  -0.5000000  -1.0000000   0.0000000), wk =   0.0625000
        k(    9) = (  -0.2500000   0.2500000   0.2500000), wk =   0.1250000
        k(   10) = (   0.5000000  -0.5000000  -0.5000000), wk =   0.0625000
        k(   11) = (   0.5000000   0.0000000   0.0000000), wk =   0.0625000
        k(   12) = (  -0.2500000   0.7500000  -0.7500000), wk =   0.1250000
        k(   13) = (   0.2500000  -0.7500000  -0.7500000), wk =   0.1250000
        k(   14) = (   0.7500000   0.2500000   0.7500000), wk =   0.2500000
        k(   15) = (   0.0000000   0.5000000  -0.5000000), wk =   0.0625000
        k(   16) = (   0.0000000  -0.5000000  -0.5000000), wk =   0.0625000
        k(   17) = (  -1.0000000   0.0000000   0.0000000), wk =   0.0312500
        k(   18) = (  -1.0000000  -0.5000000   0.0000000), wk =   0.1250000

     Dense  grid:     9257 G-vectors     FFT dimensions: (  30,  30,  30)

     Estimated max dynamical RAM per process >      10.61 MB

     Initial potential from superposition of free atoms

     starting charge       7.9989, renormalised to       8.0000
     Starting wfcs are    8 randomized atomic wfcs

     total cpu time spent up to now is        0.9 secs

     Self-consistent Calculation

     iteration #  1     ecut=    40.00 Ry     beta= 0.70
     Davidson diagonalization with overlap
     ethr =  1.00E-02,  avg # of iterations =  4.4

     Threshold (ethr) on eigenvalues was too large:
     Diagonalizing with lowered threshold

     Davidson diagonalization with overlap
     ethr =  7.60E-04,  avg # of iterations =  1.7

     total cpu time spent up to now is        1.7 secs

     total energy              =     -16.98247799 Ry
     estimated scf accuracy    <       0.06542448 Ry

     iteration #  2     ecut=    40.00 Ry     beta= 0.70
     Davidson diagonalization with overlap
     ethr =  8.18E-04,  avg # of iterations =  1.0

     total cpu time spent up to now is        2.1 secs

     total energy              =     -16.98640379 Ry
     estimated scf accuracy    <       0.00187678 Ry

     iteration #  3     ecut=    40.00 Ry     beta= 0.70
     Davidson diagonalization with overlap
     c_bands:  2 eigenvalues not converged
     ethr =  2.35E-05,  avg # of iterations =  5.7

     total cpu time spent up to now is        2.5 secs

     total energy              =     -16.98657742 Ry
     estimated scf accuracy    <       0.00005590 Ry

     iteration #  4     ecut=    40.00 Ry     beta= 0.70
     Davidson diagonalization with overlap
     ethr =  6.99E-07,  avg # of iterations =  3.4

     total cpu time spent up to now is        3.0 secs

     End of self-consistent calculation

          k = 0.0000 0.0000 0.0000 (  1139 PWs)   bands (ev):

    -6.0064   4.5715   6.3270   7.6072   7.6703   8.2428   9.1074   9.4399

          k =-0.2500 0.2500-0.2500 (  1152 PWs)   bands (ev):

    -5.2689   2.5323   4.1243   6.0750   7.6303   8.5014  10.1470  12.7816

          k = 0.5000-0.5000 0.5000 (  1158 PWs)   bands (ev):

    -4.0245  -0.2528   3.7940   5.7049   7.1962   8.1294   9.9180  13.1238

          k = 0.0000 0.5000 0.0000 (  1174 PWs)   bands (ev):

    -4.9387   1.9698   4.2707   4.6647   6.9448   8.8217  11.4178  11.9681

          k = 0.7500-0.2500 0.7500 (  1150 PWs)   bands (ev):

    -3.5489   0.2249   1.8869   4.1308   7.3154  10.0285  11.1049  12.1414

          k = 0.5000 0.0000 0.5000 (  1159 PWs)   bands (ev):

    -4.0198   0.4505   2.1914   4.9706   8.1111  10.4742  11.1343  11.8675

          k = 0.0000-1.0000 0.0000 (  1162 PWs)   bands (ev):

    -1.9548  -1.9547   3.3777   3.3777   6.4813   6.4815  16.0642  16.0643

          k =-0.5000-1.0000 0.0000 (  1144 PWs)   bands (ev):

    -1.8093  -1.8092   2.3210   2.3211   9.6945   9.6947  11.3995  11.3996

          k =-0.2500 0.2500 0.2500 (  1152 PWs)   bands (ev):

    -5.1731   1.4789   5.0096   6.1600   8.0395   9.0032  10.4160  12.4307

          k = 0.5000-0.5000-0.5000 (  1158 PWs)   bands (ev):

    -3.3360  -1.7372   4.4667   5.7119   7.5210   8.6136  10.5641  13.6333

          k = 0.5000 0.0000 0.0000 (  1174 PWs)   bands (ev):

    -4.9615   2.6901   3.3368   4.6332   6.7522   9.3841  11.8860  11.9561

          k =-0.2500 0.7500-0.7500 (  1150 PWs)   bands (ev):

    -3.5951   0.2151   2.9199   3.0677   6.6638  10.9840  11.7019  12.1766

          k = 0.2500-0.7500-0.7500 (  1150 PWs)   bands (ev):

    -3.2499  -0.6504   2.1259   4.3292   8.1935   9.5329  11.5309  11.8719

          k = 0.7500 0.2500 0.7500 (  1150 PWs)   bands (ev):

    -3.1069  -1.0964   2.9076   4.0511   7.2288  10.0863  11.8099  12.7213

          k = 0.0000 0.5000-0.5000 (  1159 PWs)   bands (ev):

    -4.2115   1.5548   2.2402   3.7268   7.5875  10.8116  11.6163  12.2771

          k = 0.0000-0.5000-0.5000 (  1159 PWs)   bands (ev):

    -3.7706  -0.4398   2.4354   5.4597   9.1854   9.8883  11.3547  11.4560

          k =-1.0000 0.0000 0.0000 (  1162 PWs)   bands (ev):

    -2.7377  -0.7786   2.5368   3.5815   5.8837   7.3635  15.7064  16.1518

          k =-1.0000-0.5000 0.0000 (  1144 PWs)   bands (ev):

    -2.4097  -0.9707   1.7646   2.5831   9.2988  10.6847  10.8533  11.2017

     the Fermi energy is     6.6203 ev

!    total energy              =     -16.98659053 Ry
     estimated scf accuracy    <       0.00000099 Ry

     The total energy is the sum of the following terms:
     one-electron contribution =       4.81045983 Ry
     hartree contribution      =       1.12359595 Ry
     xc contribution           =      -6.20980746 Ry
     ewald contribution        =     -16.71083886 Ry

     convergence has been achieved in   4 iterations

     Forces acting on atoms (cartesian axes, Ry/au):

     atom    1 type  1   force =    -0.15031574    0.00000000    0.00000000
     atom    2 type  1   force =     0.15031574    0.00000000    0.00000000

     Total force =     0.212579     Total SCF correction =     0.000364

     Writing all to output data dir ./tmp/cubicmHF.save/ :
     XML data file, charge density, pseudopotentials, collected wavefunctions

     init_run     :      0.83s CPU      0.83s WALL (       1 calls)
     electrons    :      2.14s CPU      2.16s WALL (       1 calls)
     forces       :      0.05s CPU      0.05s WALL (       1 calls)

     Called by init_run:
     wfcinit      :      0.34s CPU      0.34s WALL (       1 calls)
     potinit      :      0.09s CPU      0.09s WALL (       1 calls)
     hinit0       :      0.40s CPU      0.40s WALL (       1 calls)

     Called by electrons:
     c_bands      :      1.86s CPU      1.87s WALL (       5 calls)
     sum_band     :      0.27s CPU      0.27s WALL (       5 calls)
     v_of_rho     :      0.02s CPU      0.02s WALL (       5 calls)
     mix_rho      :      0.00s CPU      0.00s WALL (       5 calls)

     Called by c_bands:
     init_us_2    :      0.09s CPU      0.09s WALL (     216 calls)
     init_us_2:cp :      0.09s CPU      0.09s WALL (     216 calls)
     cegterg      :      1.66s CPU      1.67s WALL (      90 calls)

     Called by *egterg:
     cdiaghg      :      0.03s CPU      0.03s WALL (     363 calls)
     h_psi        :      1.66s CPU      1.66s WALL (     399 calls)
     g_psi        :      0.01s CPU      0.01s WALL (     291 calls)

     Called by h_psi:
     h_psi:calbec :      0.18s CPU      0.18s WALL (     399 calls)
     vloc_psi     :      1.34s CPU      1.35s WALL (     399 calls)
     add_vuspsi   :      0.13s CPU      0.13s WALL (     399 calls)

     General routines
     calbec       :      0.21s CPU      0.21s WALL (     471 calls)
     fft          :      0.28s CPU      0.28s WALL (      19 calls)
     ffts         :      0.00s CPU      0.00s WALL (       5 calls)
     fftw         :      1.30s CPU      1.30s WALL (    5010 calls)


     PWSCF        :      3.07s CPU      3.09s WALL


   This run was terminated on:  11:38: 9   2Dec2024            

=------------------------------------------------------------------------------=
   JOB DONE.
=------------------------------------------------------------------------------=
