
     Program PWSCF v.7.3 starts on  2Dec2024 at 11:38: 1 

     This program is part of the open-source Quantum ESPRESSO suite
     for quantum simulation of materials; please cite
         "P. Giannozzi et al., J. Phys.:Condens. Matter 21 395502 (2009);
         "P. Giannozzi et al., J. Phys.:Condens. Matter 29 465901 (2017);
         "P. Giannozzi et al., J. Chem. Phys. 152 154105 (2020);
          URL http://www.quantum-espresso.org", 
     in publications or presentations arising from this work. More details at
     http://www.quantum-espresso.org/quote

     Serial version
     5873 MiB available memory on the printing compute node when the environment starts

     Waiting for input...
     Reading input from standard input
     Message from routine read_cards :
     DEPRECATED: no units specified in ATOMIC_POSITIONS card
     Message from routine read_cards :
     ATOMIC_POSITIONS: units set to alat

     Current dimensions of program PWSCF are:
     Max number of different atomic species (ntypx) = 10
     Max number of k-points (npk) =  40000
     Max angular momentum in pseudopotentials (lmaxx) =  4
     Message from routine iosys:
     BEWARE:  force calculation with tetrahedra (not recommanded)
     [opt_tetra]  Optimized tetrahedron method is used.


     G-vector sticks info
     --------------------
     sticks:   dense  smooth     PW     G-vecs:    dense   smooth      PW
     Sum         583     583    187                 9257     9257    1591

     Using Slab Decomposition



     bravais-lattice index     =            2
     lattice parameter (alat)  =      10.2600  a.u.
     unit-cell volume          =     270.0114 (a.u.)^3
     number of atoms/cell      =            2
     number of atomic types    =            1
     number of electrons       =         8.00
     number of Kohn-Sham states=            8
     kinetic-energy cutoff     =      40.0000  Ry
     charge density cutoff     =     160.0000  Ry
     scf convergence threshold =      1.0E-06
     mixing beta               =       0.7000
     number of iterations used =            8  plain     mixing
     Exchange-correlation= SLA  PW   NOGX NOGC
                           (   1   4   0   0   0   0   0)

     celldm(1)=  10.260000  celldm(2)=   0.000000  celldm(3)=   0.000000
     celldm(4)=   0.000000  celldm(5)=   0.000000  celldm(6)=   0.000000

     crystal axes: (cart. coord. in units of alat)
               a(1) = (  -0.500000   0.000000   0.500000 )  
               a(2) = (   0.000000   0.500000   0.500000 )  
               a(3) = (  -0.500000   0.500000   0.000000 )  

     reciprocal axes: (cart. coord. in units 2 pi/alat)
               b(1) = ( -1.000000 -1.000000  1.000000 )  
               b(2) = (  1.000000  1.000000  1.000000 )  
               b(3) = ( -1.000000  1.000000 -1.000000 )  


     PseudoPot. # 1 for Si read from file:
     ./PSEUDO/Si.LDA.upf
     MD5 check sum: 9e2d726316af3d4752eea8ab0afbb951
     Pseudo is Norm-conserving + core correction, Zval =  4.0
     Generated using ONCVPSP code by D. R. Hamann
     Using radial grid of 1510 points,  6 beta functions with: 
                l(1) =   0
                l(2) =   0
                l(3) =   1
                l(4) =   1
                l(5) =   2
                l(6) =   2

     atomic species   valence    mass     pseudopotential
     Si                4.00    28.76000     Si( 1.00)

      4 Sym. Ops. (no inversion) found



   Cartesian axes

     site n.     atom                  positions (alat units)
         1        Si     tau(   1) = (   0.0200000   0.0000000   0.0000000  )
         2        Si     tau(   2) = (   0.2500000   0.2500000   0.2500000  )

     number of k points=    18 (tetrahedron method)
                       cart. coord. in units 2pi/alat
        k(    1) = (   0.0000000   0.0000000   0.0000000), wk =   0.0312500
        k(    2) = (  -0.2500000   0.2500000  -0.2500000), wk =   0.1250000
        k(    3) = (   0.5000000  -0.5000000   0.5000000), wk =   0.0625000
        k(    4) = (   0.0000000   0.5000000   0.0000000), wk =   0.1250000
        k(    5) = (   0.7500000  -0.2500000   0.7500000), wk =   0.2500000
        k(    6) = (   0.5000000   0.0000000   0.5000000), wk =   0.2500000
        k(    7) = (   0.0000000  -1.0000000   0.0000000), wk =   0.0625000
        k(    8) = (  -0.5000000  -1.0000000   0.0000000), wk =   0.0625000
        k(    9) = (  -0.2500000   0.2500000   0.2500000), wk =   0.1250000
        k(   10) = (   0.5000000  -0.5000000  -0.5000000), wk =   0.0625000
        k(   11) = (   0.5000000   0.0000000   0.0000000), wk =   0.0625000
        k(   12) = (  -0.2500000   0.7500000  -0.7500000), wk =   0.1250000
        k(   13) = (   0.2500000  -0.7500000  -0.7500000), wk =   0.1250000
        k(   14) = (   0.7500000   0.2500000   0.7500000), wk =   0.2500000
        k(   15) = (   0.0000000   0.5000000  -0.5000000), wk =   0.0625000
        k(   16) = (   0.0000000  -0.5000000  -0.5000000), wk =   0.0625000
        k(   17) = (  -1.0000000   0.0000000   0.0000000), wk =   0.0312500
        k(   18) = (  -1.0000000  -0.5000000   0.0000000), wk =   0.1250000

     Dense  grid:     9257 G-vectors     FFT dimensions: (  30,  30,  30)

     Estimated max dynamical RAM per process >      10.61 MB

     Initial potential from superposition of free atoms

     starting charge       7.9989, renormalised to       8.0000
     Starting wfcs are    8 randomized atomic wfcs

     total cpu time spent up to now is        0.6 secs

     Self-consistent Calculation

     iteration #  1     ecut=    40.00 Ry     beta= 0.70
     Davidson diagonalization with overlap
     ethr =  1.00E-02,  avg # of iterations =  4.3

     Threshold (ethr) on eigenvalues was too large:
     Diagonalizing with lowered threshold

     Davidson diagonalization with overlap
     ethr =  7.57E-04,  avg # of iterations =  1.3

     total cpu time spent up to now is        1.4 secs

     total energy              =     -17.02645943 Ry
     estimated scf accuracy    <       0.06502504 Ry

     iteration #  2     ecut=    40.00 Ry     beta= 0.70
     Davidson diagonalization with overlap
     ethr =  8.13E-04,  avg # of iterations =  1.3

     total cpu time spent up to now is        1.8 secs

     total energy              =     -17.03002705 Ry
     estimated scf accuracy    <       0.00202450 Ry

     iteration #  3     ecut=    40.00 Ry     beta= 0.70
     Davidson diagonalization with overlap
     ethr =  2.53E-05,  avg # of iterations =  3.6

     total cpu time spent up to now is        2.2 secs

     total energy              =     -17.03016760 Ry
     estimated scf accuracy    <       0.00004883 Ry

     iteration #  4     ecut=    40.00 Ry     beta= 0.70
     Davidson diagonalization with overlap
     ethr =  6.10E-07,  avg # of iterations =  4.3

     total cpu time spent up to now is        2.7 secs

     End of self-consistent calculation

          k = 0.0000 0.0000 0.0000 (  1139 PWs)   bands (ev):

    -5.9030   5.5669   6.1165   6.6113   8.2905   8.5553   8.9045   9.2476

          k =-0.2500 0.2500-0.2500 (  1152 PWs)   bands (ev):

    -5.1212   2.2972   4.9389   5.5459   7.8922   9.1804   9.7574  12.8701

          k = 0.5000-0.5000 0.5000 (  1158 PWs)   bands (ev):

    -3.6869  -0.6685   4.5367   5.1270   7.4130   8.9431   9.5871  13.4663

          k = 0.0000 0.5000 0.0000 (  1174 PWs)   bands (ev):

    -4.8219   2.4640   4.1989   4.2642   7.0939   9.0740  11.7347  11.8099

          k = 0.7500-0.2500 0.7500 (  1150 PWs)   bands (ev):

    -3.2653  -0.0879   2.3119   3.9210   7.4849  10.3635  11.5850  11.9137

          k = 0.5000 0.0000 0.5000 (  1159 PWs)   bands (ev):

    -3.8630   0.5746   2.2774   4.7855   8.3977  10.8175  11.0695  12.0793

          k = 0.0000-1.0000 0.0000 (  1162 PWs)   bands (ev):

    -1.7680  -1.7680   3.2442   3.2443   6.6521   6.6521  16.0839  16.0839

          k =-0.5000-1.0000 0.0000 (  1144 PWs)   bands (ev):

    -1.6028  -1.6028   2.2105   2.2105  10.1642  10.1642  11.0813  11.0814

          k =-0.2500 0.2500 0.2500 (  1152 PWs)   bands (ev):

    -5.0869   1.9373   5.1599   5.6724   8.0674   9.3370   9.8887  12.7148

          k = 0.5000-0.5000-0.5000 (  1158 PWs)   bands (ev):

    -3.4398  -1.1904   4.6967   5.2090   7.5516   9.1323   9.7947  13.6517

          k = 0.5000 0.0000 0.0000 (  1174 PWs)   bands (ev):

    -4.8248   2.5691   3.9345   4.3939   7.0644   9.1477  11.7836  11.8237

          k =-0.2500 0.7500-0.7500 (  1150 PWs)   bands (ev):

    -3.2666  -0.1481   2.6653   3.6320   7.2159  10.6877  11.6838  12.0510

          k = 0.2500-0.7500-0.7500 (  1150 PWs)   bands (ev):

    -3.1282  -0.4539   2.3691   4.0753   7.7622  10.1492  11.7946  11.8286

          k = 0.7500 0.2500 0.7500 (  1150 PWs)   bands (ev):

    -3.1042  -0.5689   2.6865   3.8859   7.4554  10.4170  11.7214  12.2066

          k = 0.0000 0.5000-0.5000 (  1159 PWs)   bands (ev):

    -3.9388   0.9353   2.2704   4.4321   8.1455  11.0034  11.1132  12.2088

          k = 0.0000-0.5000-0.5000 (  1159 PWs)   bands (ev):

    -3.7796   0.2361   2.3281   5.0431   8.7196  10.5121  11.2401  11.9262

          k =-1.0000 0.0000 0.0000 (  1162 PWs)   bands (ev):

    -2.0856  -1.4009   3.0226   3.3879   6.4076   6.9290  15.9547  16.1248

          k =-1.0000-0.5000 0.0000 (  1144 PWs)   bands (ev):

    -1.8479  -1.3244   2.0355   2.3455   9.9590  10.5134  10.9759  11.0204

     the Fermi energy is     6.5160 ev

!    total energy              =     -17.03018025 Ry
     estimated scf accuracy    <       0.00000032 Ry

     The total energy is the sum of the following terms:
     one-electron contribution =       4.84990145 Ry
     hartree contribution      =       1.11888511 Ry
     xc contribution           =      -6.20843921 Ry
     ewald contribution        =     -16.79052760 Ry

     convergence has been achieved in   4 iterations

     Forces acting on atoms (cartesian axes, Ry/au):

     atom    1 type  1   force =    -0.05655434    0.00000000    0.00000000
     atom    2 type  1   force =     0.05655434    0.00000000    0.00000000

     Total force =     0.079980     Total SCF correction =     0.000064

     Writing all to output data dir ./tmp/cubicmHF.save/ :
     XML data file, charge density, pseudopotentials, collected wavefunctions

     init_run     :      0.50s CPU      0.52s WALL (       1 calls)
     electrons    :      2.17s CPU      2.18s WALL (       1 calls)
     forces       :      0.05s CPU      0.05s WALL (       1 calls)

     Called by init_run:
     wfcinit      :      0.18s CPU      0.20s WALL (       1 calls)
     potinit      :      0.06s CPU      0.06s WALL (       1 calls)
     hinit0       :      0.26s CPU      0.26s WALL (       1 calls)

     Called by electrons:
     c_bands      :      1.91s CPU      1.92s WALL (       5 calls)
     sum_band     :      0.24s CPU      0.24s WALL (       5 calls)
     v_of_rho     :      0.01s CPU      0.01s WALL (       5 calls)
     mix_rho      :      0.00s CPU      0.00s WALL (       5 calls)

     Called by c_bands:
     init_us_2    :      0.06s CPU      0.06s WALL (     216 calls)
     init_us_2:cp :      0.06s CPU      0.06s WALL (     216 calls)
     cegterg      :      1.72s CPU      1.73s WALL (      90 calls)

     Called by *egterg:
     cdiaghg      :      0.03s CPU      0.03s WALL (     338 calls)
     h_psi        :      1.62s CPU      1.65s WALL (     374 calls)
     g_psi        :      0.01s CPU      0.01s WALL (     266 calls)

     Called by h_psi:
     h_psi:calbec :      0.18s CPU      0.19s WALL (     374 calls)
     vloc_psi     :      1.28s CPU      1.30s WALL (     374 calls)
     add_vuspsi   :      0.15s CPU      0.15s WALL (     374 calls)

     General routines
     calbec       :      0.21s CPU      0.22s WALL (     446 calls)
     fft          :      0.19s CPU      0.19s WALL (      19 calls)
     ffts         :      0.00s CPU      0.00s WALL (       5 calls)
     fftw         :      1.26s CPU      1.27s WALL (    4914 calls)


     PWSCF        :      2.75s CPU      2.80s WALL


   This run was terminated on:  11:38: 3   2Dec2024            

=------------------------------------------------------------------------------=
   JOB DONE.
=------------------------------------------------------------------------------=
