
     Program PWSCF v.7.3 starts on  2Dec2024 at 11:37:53 

     This program is part of the open-source Quantum ESPRESSO suite
     for quantum simulation of materials; please cite
         "P. Giannozzi et al., J. Phys.:Condens. Matter 21 395502 (2009);
         "P. Giannozzi et al., J. Phys.:Condens. Matter 29 465901 (2017);
         "P. Giannozzi et al., J. Chem. Phys. 152 154105 (2020);
          URL http://www.quantum-espresso.org", 
     in publications or presentations arising from this work. More details at
     http://www.quantum-espresso.org/quote

     Serial version
     5876 MiB available memory on the printing compute node when the environment starts

     Waiting for input...
     Reading input from standard input
     Message from routine read_cards :
     DEPRECATED: no units specified in ATOMIC_POSITIONS card
     Message from routine read_cards :
     ATOMIC_POSITIONS: units set to alat

     Current dimensions of program PWSCF are:
     Max number of different atomic species (ntypx) = 10
     Max number of k-points (npk) =  40000
     Max angular momentum in pseudopotentials (lmaxx) =  4
     Message from routine iosys:
     BEWARE:  force calculation with tetrahedra (not recommanded)
     [opt_tetra]  Optimized tetrahedron method is used.


     G-vector sticks info
     --------------------
     sticks:   dense  smooth     PW     G-vecs:    dense   smooth      PW
     Sum         583     583    187                 9257     9257    1591

     Using Slab Decomposition



     bravais-lattice index     =            2
     lattice parameter (alat)  =      10.2600  a.u.
     unit-cell volume          =     270.0114 (a.u.)^3
     number of atoms/cell      =            2
     number of atomic types    =            1
     number of electrons       =         8.00
     number of Kohn-Sham states=            8
     kinetic-energy cutoff     =      40.0000  Ry
     charge density cutoff     =     160.0000  Ry
     scf convergence threshold =      1.0E-06
     mixing beta               =       0.7000
     number of iterations used =            8  plain     mixing
     Exchange-correlation= SLA  PW   NOGX NOGC
                           (   1   4   0   0   0   0   0)

     celldm(1)=  10.260000  celldm(2)=   0.000000  celldm(3)=   0.000000
     celldm(4)=   0.000000  celldm(5)=   0.000000  celldm(6)=   0.000000

     crystal axes: (cart. coord. in units of alat)
               a(1) = (  -0.500000   0.000000   0.500000 )  
               a(2) = (   0.000000   0.500000   0.500000 )  
               a(3) = (  -0.500000   0.500000   0.000000 )  

     reciprocal axes: (cart. coord. in units 2 pi/alat)
               b(1) = ( -1.000000 -1.000000  1.000000 )  
               b(2) = (  1.000000  1.000000  1.000000 )  
               b(3) = ( -1.000000  1.000000 -1.000000 )  


     PseudoPot. # 1 for Si read from file:
     ./PSEUDO/Si.LDA.upf
     MD5 check sum: 9e2d726316af3d4752eea8ab0afbb951
     Pseudo is Norm-conserving + core correction, Zval =  4.0
     Generated using ONCVPSP code by D. R. Hamann
     Using radial grid of 1510 points,  6 beta functions with: 
                l(1) =   0
                l(2) =   0
                l(3) =   1
                l(4) =   1
                l(5) =   2
                l(6) =   2

     atomic species   valence    mass     pseudopotential
     Si                4.00    28.76000     Si( 1.00)

      4 Sym. Ops. (no inversion) found



   Cartesian axes

     site n.     atom                  positions (alat units)
         1        Si     tau(   1) = (  -0.0400000   0.0000000   0.0000000  )
         2        Si     tau(   2) = (   0.2500000   0.2500000   0.2500000  )

     number of k points=    18 (tetrahedron method)
                       cart. coord. in units 2pi/alat
        k(    1) = (   0.0000000   0.0000000   0.0000000), wk =   0.0312500
        k(    2) = (  -0.2500000   0.2500000  -0.2500000), wk =   0.1250000
        k(    3) = (   0.5000000  -0.5000000   0.5000000), wk =   0.0625000
        k(    4) = (   0.0000000   0.5000000   0.0000000), wk =   0.1250000
        k(    5) = (   0.7500000  -0.2500000   0.7500000), wk =   0.2500000
        k(    6) = (   0.5000000   0.0000000   0.5000000), wk =   0.2500000
        k(    7) = (   0.0000000  -1.0000000   0.0000000), wk =   0.0625000
        k(    8) = (  -0.5000000  -1.0000000   0.0000000), wk =   0.0625000
        k(    9) = (  -0.2500000   0.2500000   0.2500000), wk =   0.1250000
        k(   10) = (   0.5000000  -0.5000000  -0.5000000), wk =   0.0625000
        k(   11) = (   0.5000000   0.0000000   0.0000000), wk =   0.0625000
        k(   12) = (  -0.2500000   0.7500000  -0.7500000), wk =   0.1250000
        k(   13) = (   0.2500000  -0.7500000  -0.7500000), wk =   0.1250000
        k(   14) = (   0.7500000   0.2500000   0.7500000), wk =   0.2500000
        k(   15) = (   0.0000000   0.5000000  -0.5000000), wk =   0.0625000
        k(   16) = (   0.0000000  -0.5000000  -0.5000000), wk =   0.0625000
        k(   17) = (  -1.0000000   0.0000000   0.0000000), wk =   0.0312500
        k(   18) = (  -1.0000000  -0.5000000   0.0000000), wk =   0.1250000

     Dense  grid:     9257 G-vectors     FFT dimensions: (  30,  30,  30)

     Estimated max dynamical RAM per process >      10.61 MB

     Initial potential from superposition of free atoms

     starting charge       7.9989, renormalised to       8.0000
     Starting wfcs are    8 randomized atomic wfcs

     total cpu time spent up to now is        0.6 secs

     Self-consistent Calculation

     iteration #  1     ecut=    40.00 Ry     beta= 0.70
     Davidson diagonalization with overlap
     ethr =  1.00E-02,  avg # of iterations =  4.4

     Threshold (ethr) on eigenvalues was too large:
     Diagonalizing with lowered threshold

     Davidson diagonalization with overlap
     ethr =  7.61E-04,  avg # of iterations =  1.4

     total cpu time spent up to now is        1.4 secs

     total energy              =     -17.00933548 Ry
     estimated scf accuracy    <       0.06527276 Ry

     iteration #  2     ecut=    40.00 Ry     beta= 0.70
     Davidson diagonalization with overlap
     ethr =  8.16E-04,  avg # of iterations =  1.0

     total cpu time spent up to now is        1.8 secs

     total energy              =     -17.01304774 Ry
     estimated scf accuracy    <       0.00195643 Ry

     iteration #  3     ecut=    40.00 Ry     beta= 0.70
     Davidson diagonalization with overlap
     ethr =  2.45E-05,  avg # of iterations =  4.6

     total cpu time spent up to now is        2.2 secs

     total energy              =     -17.01319954 Ry
     estimated scf accuracy    <       0.00005192 Ry

     iteration #  4     ecut=    40.00 Ry     beta= 0.70
     Davidson diagonalization with overlap
     ethr =  6.49E-07,  avg # of iterations =  4.1

     total cpu time spent up to now is        2.7 secs

     End of self-consistent calculation

          k = 0.0000 0.0000 0.0000 (  1139 PWs)   bands (ev):

    -5.9440   5.0580   6.1964   7.1184   7.9769   8.4264   9.1857   9.1952

          k =-0.2500 0.2500-0.2500 (  1152 PWs)   bands (ev):

    -5.1172   1.7167   5.0546   5.9544   8.0845   9.1521  10.1878  12.5500

          k = 0.5000-0.5000 0.5000 (  1158 PWs)   bands (ev):

    -3.3701  -1.4653   4.5559   5.4840   7.5621   8.8768  10.1955  13.6699

          k = 0.0000 0.5000 0.0000 (  1174 PWs)   bands (ev):

    -4.8683   2.2465   4.2275   4.4454   7.0339   8.9752  11.5981  11.8736

          k = 0.7500-0.2500 0.7500 (  1150 PWs)   bands (ev):

    -3.0864  -0.8330   2.8130   3.9505   7.3635  10.2898  11.7497  12.4742

          k = 0.5000 0.0000 0.5000 (  1159 PWs)   bands (ev):

    -3.9257   0.5290   2.2372   4.8622   8.2822  10.7084  11.0469  12.0027

          k = 0.0000-1.0000 0.0000 (  1162 PWs)   bands (ev):

    -1.8430  -1.8429   3.2975   3.2976   6.5860   6.5860  16.1635  16.1639

          k =-0.5000-1.0000 0.0000 (  1144 PWs)   bands (ev):

    -1.6861  -1.6861   2.2561   2.2562   9.9477   9.9478  11.2425  11.2425

          k =-0.2500 0.2500 0.2500 (  1152 PWs)   bands (ev):

    -5.1838   2.4291   4.5326   5.8010   7.7663   8.8248   9.9622  12.8444

          k = 0.5000-0.5000-0.5000 (  1158 PWs)   bands (ev):

    -3.8492  -0.4448   4.1673   5.4011   7.3094   8.5250   9.7703  13.3116

          k = 0.5000 0.0000 0.0000 (  1174 PWs)   bands (ev):

    -4.8793   2.6175   3.6456   4.5413   6.9314   9.2497  11.8161  11.8838

          k =-0.2500 0.7500-0.7500 (  1150 PWs)   bands (ev):

    -3.1604  -0.5622   2.2352   4.2261   7.9977   9.8392  11.6875  11.8484

          k = 0.2500-0.7500-0.7500 (  1150 PWs)   bands (ev):

    -3.4165   0.0331   2.8014   3.3588   6.9347  10.8706  11.6702  12.1271

          k = 0.7500 0.2500 0.7500 (  1150 PWs)   bands (ev):

    -3.3970   0.0961   2.0936   4.0115   7.4218  10.2163  11.3356  12.0249

          k = 0.0000 0.5000-0.5000 (  1159 PWs)   bands (ev):

    -3.7576  -0.1097   2.3755   5.2778   8.9716  10.1985  11.3249  11.7085

          k = 0.0000-0.5000-0.5000 (  1159 PWs)   bands (ev):

    -4.0656   1.2594   2.2542   4.0840   7.8578  10.8939  11.3809  12.2672

          k =-1.0000 0.0000 0.0000 (  1162 PWs)   bands (ev):

    -2.4201  -1.0780   2.7897   3.5055   6.1410   7.1598  15.8360  16.1596

          k =-1.0000-0.5000 0.0000 (  1144 PWs)   bands (ev):

    -2.1308  -1.1201   1.8875   2.4770   9.6319  10.6611  10.9286  11.0793

     the Fermi energy is     6.5987 ev

!    total energy              =     -17.01321228 Ry
     estimated scf accuracy    <       0.00000043 Ry

     The total energy is the sum of the following terms:
     one-electron contribution =       4.83518102 Ry
     hartree contribution      =       1.12040352 Ry
     xc contribution           =      -6.20888355 Ry
     ewald contribution        =     -16.75991328 Ry

     convergence has been achieved in   4 iterations

     Forces acting on atoms (cartesian axes, Ry/au):

     atom    1 type  1   force =     0.10757507    0.00000000   -0.00000000
     atom    2 type  1   force =    -0.10757507   -0.00000000    0.00000000

     Total force =     0.152134     Total SCF correction =     0.000216

     Writing all to output data dir ./tmp/cubicmHF.save/ :
     XML data file, charge density, pseudopotentials, collected wavefunctions

     init_run     :      0.51s CPU      0.52s WALL (       1 calls)
     electrons    :      2.07s CPU      2.13s WALL (       1 calls)
     forces       :      0.05s CPU      0.05s WALL (       1 calls)

     Called by init_run:
     wfcinit      :      0.20s CPU      0.21s WALL (       1 calls)
     potinit      :      0.03s CPU      0.03s WALL (       1 calls)
     hinit0       :      0.26s CPU      0.26s WALL (       1 calls)

     Called by electrons:
     c_bands      :      1.78s CPU      1.84s WALL (       5 calls)
     sum_band     :      0.26s CPU      0.26s WALL (       5 calls)
     v_of_rho     :      0.02s CPU      0.02s WALL (       5 calls)
     mix_rho      :      0.00s CPU      0.00s WALL (       5 calls)

     Called by c_bands:
     init_us_2    :      0.07s CPU      0.07s WALL (     216 calls)
     init_us_2:cp :      0.06s CPU      0.07s WALL (     216 calls)
     cegterg      :      1.61s CPU      1.66s WALL (      90 calls)

     Called by *egterg:
     cdiaghg      :      0.03s CPU      0.03s WALL (     351 calls)
     h_psi        :      1.51s CPU      1.56s WALL (     387 calls)
     g_psi        :      0.01s CPU      0.01s WALL (     279 calls)

     Called by h_psi:
     h_psi:calbec :      0.16s CPU      0.16s WALL (     387 calls)
     vloc_psi     :      1.19s CPU      1.23s WALL (     387 calls)
     add_vuspsi   :      0.15s CPU      0.15s WALL (     387 calls)

     General routines
     calbec       :      0.19s CPU      0.20s WALL (     459 calls)
     fft          :      0.19s CPU      0.19s WALL (      19 calls)
     ffts         :      0.00s CPU      0.00s WALL (       5 calls)
     fftw         :      1.16s CPU      1.18s WALL (    4928 calls)


     PWSCF        :      2.66s CPU      2.74s WALL


   This run was terminated on:  11:37:56   2Dec2024            

=------------------------------------------------------------------------------=
   JOB DONE.
=------------------------------------------------------------------------------=
