
     Program PWSCF v.7.3 starts on  2Dec2024 at 11:37:50 

     This program is part of the open-source Quantum ESPRESSO suite
     for quantum simulation of materials; please cite
         "P. Giannozzi et al., J. Phys.:Condens. Matter 21 395502 (2009);
         "P. Giannozzi et al., J. Phys.:Condens. Matter 29 465901 (2017);
         "P. Giannozzi et al., J. Chem. Phys. 152 154105 (2020);
          URL http://www.quantum-espresso.org", 
     in publications or presentations arising from this work. More details at
     http://www.quantum-espresso.org/quote

     Serial version
     5876 MiB available memory on the printing compute node when the environment starts

     Waiting for input...
     Reading input from standard input
     Message from routine read_cards :
     DEPRECATED: no units specified in ATOMIC_POSITIONS card
     Message from routine read_cards :
     ATOMIC_POSITIONS: units set to alat

     Current dimensions of program PWSCF are:
     Max number of different atomic species (ntypx) = 10
     Max number of k-points (npk) =  40000
     Max angular momentum in pseudopotentials (lmaxx) =  4
     Message from routine iosys:
     BEWARE:  force calculation with tetrahedra (not recommanded)
     [opt_tetra]  Optimized tetrahedron method is used.


     G-vector sticks info
     --------------------
     sticks:   dense  smooth     PW     G-vecs:    dense   smooth      PW
     Sum         583     583    187                 9257     9257    1591

     Using Slab Decomposition



     bravais-lattice index     =            2
     lattice parameter (alat)  =      10.2600  a.u.
     unit-cell volume          =     270.0114 (a.u.)^3
     number of atoms/cell      =            2
     number of atomic types    =            1
     number of electrons       =         8.00
     number of Kohn-Sham states=            8
     kinetic-energy cutoff     =      40.0000  Ry
     charge density cutoff     =     160.0000  Ry
     scf convergence threshold =      1.0E-06
     mixing beta               =       0.7000
     number of iterations used =            8  plain     mixing
     Exchange-correlation= SLA  PW   NOGX NOGC
                           (   1   4   0   0   0   0   0)

     celldm(1)=  10.260000  celldm(2)=   0.000000  celldm(3)=   0.000000
     celldm(4)=   0.000000  celldm(5)=   0.000000  celldm(6)=   0.000000

     crystal axes: (cart. coord. in units of alat)
               a(1) = (  -0.500000   0.000000   0.500000 )  
               a(2) = (   0.000000   0.500000   0.500000 )  
               a(3) = (  -0.500000   0.500000   0.000000 )  

     reciprocal axes: (cart. coord. in units 2 pi/alat)
               b(1) = ( -1.000000 -1.000000  1.000000 )  
               b(2) = (  1.000000  1.000000  1.000000 )  
               b(3) = ( -1.000000  1.000000 -1.000000 )  


     PseudoPot. # 1 for Si read from file:
     ./PSEUDO/Si.LDA.upf
     MD5 check sum: 9e2d726316af3d4752eea8ab0afbb951
     Pseudo is Norm-conserving + core correction, Zval =  4.0
     Generated using ONCVPSP code by D. R. Hamann
     Using radial grid of 1510 points,  6 beta functions with: 
                l(1) =   0
                l(2) =   0
                l(3) =   1
                l(4) =   1
                l(5) =   2
                l(6) =   2

     atomic species   valence    mass     pseudopotential
     Si                4.00    28.76000     Si( 1.00)

      4 Sym. Ops. (no inversion) found



   Cartesian axes

     site n.     atom                  positions (alat units)
         1        Si     tau(   1) = (  -0.0600000   0.0000000   0.0000000  )
         2        Si     tau(   2) = (   0.2500000   0.2500000   0.2500000  )

     number of k points=    18 (tetrahedron method)
                       cart. coord. in units 2pi/alat
        k(    1) = (   0.0000000   0.0000000   0.0000000), wk =   0.0312500
        k(    2) = (  -0.2500000   0.2500000  -0.2500000), wk =   0.1250000
        k(    3) = (   0.5000000  -0.5000000   0.5000000), wk =   0.0625000
        k(    4) = (   0.0000000   0.5000000   0.0000000), wk =   0.1250000
        k(    5) = (   0.7500000  -0.2500000   0.7500000), wk =   0.2500000
        k(    6) = (   0.5000000   0.0000000   0.5000000), wk =   0.2500000
        k(    7) = (   0.0000000  -1.0000000   0.0000000), wk =   0.0625000
        k(    8) = (  -0.5000000  -1.0000000   0.0000000), wk =   0.0625000
        k(    9) = (  -0.2500000   0.2500000   0.2500000), wk =   0.1250000
        k(   10) = (   0.5000000  -0.5000000  -0.5000000), wk =   0.0625000
        k(   11) = (   0.5000000   0.0000000   0.0000000), wk =   0.0625000
        k(   12) = (  -0.2500000   0.7500000  -0.7500000), wk =   0.1250000
        k(   13) = (   0.2500000  -0.7500000  -0.7500000), wk =   0.1250000
        k(   14) = (   0.7500000   0.2500000   0.7500000), wk =   0.2500000
        k(   15) = (   0.0000000   0.5000000  -0.5000000), wk =   0.0625000
        k(   16) = (   0.0000000  -0.5000000  -0.5000000), wk =   0.0625000
        k(   17) = (  -1.0000000   0.0000000   0.0000000), wk =   0.0312500
        k(   18) = (  -1.0000000  -0.5000000   0.0000000), wk =   0.1250000

     Dense  grid:     9257 G-vectors     FFT dimensions: (  30,  30,  30)

     Estimated max dynamical RAM per process >      10.61 MB

     Initial potential from superposition of free atoms

     starting charge       7.9989, renormalised to       8.0000
     Starting wfcs are    8 randomized atomic wfcs

     total cpu time spent up to now is        0.5 secs

     Self-consistent Calculation

     iteration #  1     ecut=    40.00 Ry     beta= 0.70
     Davidson diagonalization with overlap
     ethr =  1.00E-02,  avg # of iterations =  4.4

     Threshold (ethr) on eigenvalues was too large:
     Diagonalizing with lowered threshold

     Davidson diagonalization with overlap
     ethr =  7.61E-04,  avg # of iterations =  1.7

     total cpu time spent up to now is        1.4 secs

     total energy              =     -16.98248129 Ry
     estimated scf accuracy    <       0.06541399 Ry

     iteration #  2     ecut=    40.00 Ry     beta= 0.70
     Davidson diagonalization with overlap
     ethr =  8.18E-04,  avg # of iterations =  1.0

     total cpu time spent up to now is        1.8 secs

     total energy              =     -16.98640680 Ry
     estimated scf accuracy    <       0.00187589 Ry

     iteration #  3     ecut=    40.00 Ry     beta= 0.70
     Davidson diagonalization with overlap
     c_bands:  2 eigenvalues not converged
     ethr =  2.34E-05,  avg # of iterations =  5.6

     total cpu time spent up to now is        2.2 secs

     total energy              =     -16.98657676 Ry
     estimated scf accuracy    <       0.00005584 Ry

     iteration #  4     ecut=    40.00 Ry     beta= 0.70
     Davidson diagonalization with overlap
     ethr =  6.98E-07,  avg # of iterations =  3.9

     total cpu time spent up to now is        2.8 secs

     total energy              =     -16.98659058 Ry
     estimated scf accuracy    <       0.00000119 Ry

     iteration #  5     ecut=    40.00 Ry     beta= 0.70
     Davidson diagonalization with overlap
     ethr =  1.49E-08,  avg # of iterations =  2.8

     total cpu time spent up to now is        3.2 secs

     End of self-consistent calculation

          k = 0.0000 0.0000 0.0000 (  1139 PWs)   bands (ev):

    -6.0067   4.5718   6.3262   7.6054   7.6705   8.2432   9.1062   9.4390

          k =-0.2500 0.2500-0.2500 (  1152 PWs)   bands (ev):

    -5.1734   1.4790   5.0090   6.1590   8.0387   9.0030  10.4155  12.4298

          k = 0.5000-0.5000 0.5000 (  1158 PWs)   bands (ev):

    -3.3368  -1.7367   4.4664   5.7108   7.5202   8.6138  10.5631  13.6334

          k = 0.0000 0.5000 0.0000 (  1174 PWs)   bands (ev):

    -4.9390   1.9700   4.2702   4.6633   6.9446   8.8217  11.4182  11.9676

          k = 0.7500-0.2500 0.7500 (  1150 PWs)   bands (ev):

    -3.1074  -1.0961   2.9069   4.0502   7.2288  10.0861  11.8094  12.7203

          k = 0.5000 0.0000 0.5000 (  1159 PWs)   bands (ev):

    -4.0200   0.4501   2.1912   4.9697   8.1109  10.4746  11.1338  11.8672

          k = 0.0000-1.0000 0.0000 (  1162 PWs)   bands (ev):

    -1.9551  -1.9548   3.3770   3.3770   6.4813   6.4815  16.0645  16.0647

          k =-0.5000-1.0000 0.0000 (  1144 PWs)   bands (ev):

    -1.8096  -1.8093   2.3204   2.3205   9.6944   9.6946  11.3992  11.3992

          k =-0.2500 0.2500 0.2500 (  1152 PWs)   bands (ev):

    -5.2691   2.5315   4.1244   6.0737   7.6300   8.5022  10.1463  12.7810

          k = 0.5000-0.5000-0.5000 (  1158 PWs)   bands (ev):

    -4.0245  -0.2538   3.7941   5.7035   7.1959   8.1303   9.9175  13.1248

          k = 0.5000 0.0000 0.0000 (  1174 PWs)   bands (ev):

    -4.9617   2.6891   3.3369   4.6326   6.7530   9.3835  11.8851  11.9555

          k =-0.2500 0.7500-0.7500 (  1150 PWs)   bands (ev):

    -3.2501  -0.6507   2.1257   4.3285   8.1926   9.5335  11.5308  11.8714

          k = 0.2500-0.7500-0.7500 (  1150 PWs)   bands (ev):

    -3.5950   0.2138   2.9192   3.0677   6.6649  10.9831  11.7011  12.1761

          k = 0.7500 0.2500 0.7500 (  1150 PWs)   bands (ev):

    -3.5490   0.2238   1.8872   4.1299   7.3152  10.0285  11.1055  12.1407

          k = 0.0000 0.5000-0.5000 (  1159 PWs)   bands (ev):

    -3.7711  -0.4394   2.4348   5.4587   9.1841   9.8884  11.3549  11.4557

          k = 0.0000-0.5000-0.5000 (  1159 PWs)   bands (ev):

    -4.2115   1.5531   2.2400   3.7269   7.5886  10.8106  11.6154  12.2769

          k =-1.0000 0.0000 0.0000 (  1162 PWs)   bands (ev):

    -2.7373  -0.7803   2.5368   3.5809   5.8848   7.3627  15.7062  16.1508

          k =-1.0000-0.5000 0.0000 (  1144 PWs)   bands (ev):

    -2.4094  -0.9719   1.7646   2.5825   9.2993  10.6840  10.8535  11.2009

     the Fermi energy is     6.6202 ev

!    total energy              =     -16.98659106 Ry
     estimated scf accuracy    <       0.00000035 Ry

     The total energy is the sum of the following terms:
     one-electron contribution =       4.81041643 Ry
     hartree contribution      =       1.12369343 Ry
     xc contribution           =      -6.20986206 Ry
     ewald contribution        =     -16.71083886 Ry

     convergence has been achieved in   5 iterations

     Forces acting on atoms (cartesian axes, Ry/au):

     atom    1 type  1   force =     0.15034259    0.00000000    0.00000000
     atom    2 type  1   force =    -0.15034259    0.00000000    0.00000000

     Total force =     0.212617     Total SCF correction =     0.000098

     Writing all to output data dir ./tmp/cubicmHF.save/ :
     XML data file, charge density, pseudopotentials, collected wavefunctions

     init_run     :      0.48s CPU      0.48s WALL (       1 calls)
     electrons    :      2.69s CPU      2.72s WALL (       1 calls)
     forces       :      0.05s CPU      0.05s WALL (       1 calls)

     Called by init_run:
     wfcinit      :      0.17s CPU      0.17s WALL (       1 calls)
     potinit      :      0.06s CPU      0.06s WALL (       1 calls)
     hinit0       :      0.24s CPU      0.24s WALL (       1 calls)

     Called by electrons:
     c_bands      :      2.35s CPU      2.38s WALL (       6 calls)
     sum_band     :      0.32s CPU      0.32s WALL (       6 calls)
     v_of_rho     :      0.01s CPU      0.01s WALL (       6 calls)
     mix_rho      :      0.01s CPU      0.01s WALL (       6 calls)

     Called by c_bands:
     init_us_2    :      0.07s CPU      0.07s WALL (     252 calls)
     init_us_2:cp :      0.07s CPU      0.07s WALL (     252 calls)
     cegterg      :      2.11s CPU      2.14s WALL (     108 calls)

     Called by *egterg:
     cdiaghg      :      0.05s CPU      0.05s WALL (     438 calls)
     h_psi        :      1.94s CPU      1.96s WALL (     474 calls)
     g_psi        :      0.01s CPU      0.01s WALL (     348 calls)

     Called by h_psi:
     h_psi:calbec :      0.22s CPU      0.22s WALL (     474 calls)
     vloc_psi     :      1.53s CPU      1.55s WALL (     474 calls)
     add_vuspsi   :      0.18s CPU      0.18s WALL (     474 calls)

     General routines
     calbec       :      0.25s CPU      0.25s WALL (     546 calls)
     fft          :      0.18s CPU      0.18s WALL (      22 calls)
     ffts         :      0.00s CPU      0.00s WALL (       6 calls)
     fftw         :      1.47s CPU      1.49s WALL (    5906 calls)


     PWSCF        :      3.27s CPU      3.30s WALL


   This run was terminated on:  11:37:53   2Dec2024            

=------------------------------------------------------------------------------=
   JOB DONE.
=------------------------------------------------------------------------------=
