
     Program PWSCF v.7.3 starts on  2Dec2024 at 11:37:59 

     This program is part of the open-source Quantum ESPRESSO suite
     for quantum simulation of materials; please cite
         "P. Giannozzi et al., J. Phys.:Condens. Matter 21 395502 (2009);
         "P. Giannozzi et al., J. Phys.:Condens. Matter 29 465901 (2017);
         "P. Giannozzi et al., J. Chem. Phys. 152 154105 (2020);
          URL http://www.quantum-espresso.org", 
     in publications or presentations arising from this work. More details at
     http://www.quantum-espresso.org/quote

     Serial version
     5877 MiB available memory on the printing compute node when the environment starts

     Waiting for input...
     Reading input from standard input
     Message from routine read_cards :
     DEPRECATED: no units specified in ATOMIC_POSITIONS card
     Message from routine read_cards :
     ATOMIC_POSITIONS: units set to alat

     Current dimensions of program PWSCF are:
     Max number of different atomic species (ntypx) = 10
     Max number of k-points (npk) =  40000
     Max angular momentum in pseudopotentials (lmaxx) =  4
     Message from routine iosys:
     BEWARE:  force calculation with tetrahedra (not recommanded)
     [opt_tetra]  Optimized tetrahedron method is used.


     G-vector sticks info
     --------------------
     sticks:   dense  smooth     PW     G-vecs:    dense   smooth      PW
     Sum         583     583    187                 9257     9257    1591

     Using Slab Decomposition



     bravais-lattice index     =            2
     lattice parameter (alat)  =      10.2600  a.u.
     unit-cell volume          =     270.0114 (a.u.)^3
     number of atoms/cell      =            2
     number of atomic types    =            1
     number of electrons       =         8.00
     number of Kohn-Sham states=            8
     kinetic-energy cutoff     =      40.0000  Ry
     charge density cutoff     =     160.0000  Ry
     scf convergence threshold =      1.0E-06
     mixing beta               =       0.7000
     number of iterations used =            8  plain     mixing
     Exchange-correlation= SLA  PW   NOGX NOGC
                           (   1   4   0   0   0   0   0)

     celldm(1)=  10.260000  celldm(2)=   0.000000  celldm(3)=   0.000000
     celldm(4)=   0.000000  celldm(5)=   0.000000  celldm(6)=   0.000000

     crystal axes: (cart. coord. in units of alat)
               a(1) = (  -0.500000   0.000000   0.500000 )  
               a(2) = (   0.000000   0.500000   0.500000 )  
               a(3) = (  -0.500000   0.500000   0.000000 )  

     reciprocal axes: (cart. coord. in units 2 pi/alat)
               b(1) = ( -1.000000 -1.000000  1.000000 )  
               b(2) = (  1.000000  1.000000  1.000000 )  
               b(3) = ( -1.000000  1.000000 -1.000000 )  


     PseudoPot. # 1 for Si read from file:
     ./PSEUDO/Si.LDA.upf
     MD5 check sum: 9e2d726316af3d4752eea8ab0afbb951
     Pseudo is Norm-conserving + core correction, Zval =  4.0
     Generated using ONCVPSP code by D. R. Hamann
     Using radial grid of 1510 points,  6 beta functions with: 
                l(1) =   0
                l(2) =   0
                l(3) =   1
                l(4) =   1
                l(5) =   2
                l(6) =   2

     atomic species   valence    mass     pseudopotential
     Si                4.00    28.76000     Si( 1.00)

     48 Sym. Ops., with inversion, found (24 have fractional translation)



   Cartesian axes

     site n.     atom                  positions (alat units)
         1        Si     tau(   1) = (   0.0000000   0.0000000   0.0000000  )
         2        Si     tau(   2) = (   0.2500000   0.2500000   0.2500000  )

     number of k points=     8 (tetrahedron method)
                       cart. coord. in units 2pi/alat
        k(    1) = (   0.0000000   0.0000000   0.0000000), wk =   0.0312500
        k(    2) = (  -0.2500000   0.2500000  -0.2500000), wk =   0.2500000
        k(    3) = (   0.5000000  -0.5000000   0.5000000), wk =   0.1250000
        k(    4) = (   0.0000000   0.5000000   0.0000000), wk =   0.1875000
        k(    5) = (   0.7500000  -0.2500000   0.7500000), wk =   0.7500000
        k(    6) = (   0.5000000   0.0000000   0.5000000), wk =   0.3750000
        k(    7) = (   0.0000000  -1.0000000   0.0000000), wk =   0.0937500
        k(    8) = (  -0.5000000  -1.0000000   0.0000000), wk =   0.1875000

     Dense  grid:     9257 G-vectors     FFT dimensions: (  32,  32,  32)

     Estimated max dynamical RAM per process >       9.60 MB

     Initial potential from superposition of free atoms

     starting charge       7.9989, renormalised to       8.0000
     Starting wfcs are    8 randomized atomic wfcs

     total cpu time spent up to now is        0.5 secs

     Self-consistent Calculation

     iteration #  1     ecut=    40.00 Ry     beta= 0.70
     Davidson diagonalization with overlap
     ethr =  1.00E-02,  avg # of iterations =  4.2

     Threshold (ethr) on eigenvalues was too large:
     Diagonalizing with lowered threshold

     Davidson diagonalization with overlap
     ethr =  7.55E-04,  avg # of iterations =  1.4

     total cpu time spent up to now is        1.0 secs

     total energy              =     -17.03238023 Ry
     estimated scf accuracy    <       0.06482079 Ry

     iteration #  2     ecut=    40.00 Ry     beta= 0.70
     Davidson diagonalization with overlap
     ethr =  8.10E-04,  avg # of iterations =  1.0

     total cpu time spent up to now is        1.2 secs

     total energy              =     -17.03588761 Ry
     estimated scf accuracy    <       0.00204126 Ry

     iteration #  3     ecut=    40.00 Ry     beta= 0.70
     Davidson diagonalization with overlap
     ethr =  2.55E-05,  avg # of iterations =  3.5

     total cpu time spent up to now is        1.5 secs

     total energy              =     -17.03602113 Ry
     estimated scf accuracy    <       0.00004793 Ry

     iteration #  4     ecut=    40.00 Ry     beta= 0.70
     Davidson diagonalization with overlap
     ethr =  5.99E-07,  avg # of iterations =  2.9

     total cpu time spent up to now is        1.6 secs

     End of self-consistent calculation

          k = 0.0000 0.0000 0.0000 (  1139 PWs)   bands (ev):

    -5.8889   6.0892   6.0892   6.0892   8.6027   8.6027   8.6027   9.2642

          k =-0.2500 0.2500-0.2500 (  1152 PWs)   bands (ev):

    -5.0880   2.1325   5.3262   5.3262   7.9975   9.5437   9.5437  12.8346

          k = 0.5000-0.5000 0.5000 (  1158 PWs)   bands (ev):

    -3.5474  -0.9209   4.8888   4.8888   7.4975   9.3718   9.3718  13.5820

          k = 0.0000 0.5000 0.0000 (  1174 PWs)   bands (ev):

    -4.8059   2.5515   4.1885   4.1885   7.1149   9.1080  11.7871  11.7871

          k = 0.7500-0.2500 0.7500 (  1150 PWs)   bands (ev):

    -3.1650  -0.3154   2.5168   3.8746   7.4967  10.4400  11.7318  11.9503

          k = 0.5000 0.0000 0.5000 (  1159 PWs)   bands (ev):

    -3.8411   0.5890   2.2934   4.7569   8.4386  10.8201  11.1248  12.0949

          k = 0.0000-1.0000 0.0000 (  1162 PWs)   bands (ev):

    -1.7416  -1.7416   3.2250   3.2250   6.6745   6.6745  16.0534  16.0534

          k =-0.5000-1.0000 0.0000 (  1144 PWs)   bands (ev):

    -1.5733  -1.5733   2.1935   2.1935  10.2625  10.2625  11.0004  11.0004

     the Fermi energy is     6.4975 ev

!    total energy              =     -17.03603421 Ry
     estimated scf accuracy    <       0.00000052 Ry

     The total energy is the sum of the following terms:
     one-electron contribution =       4.85507345 Ry
     hartree contribution      =       1.11789205 Ry
     xc contribution           =      -6.20807010 Ry
     ewald contribution        =     -16.80092960 Ry

     convergence has been achieved in   4 iterations

     Forces acting on atoms (cartesian axes, Ry/au):

     atom    1 type  1   force =    -0.00000000    0.00000000   -0.00000000
     atom    2 type  1   force =     0.00000000   -0.00000000    0.00000000

     Total force =     0.000000     Total SCF correction =     0.000000

     Writing all to output data dir ./tmp/cubicmHF.save/ :
     XML data file, charge density, pseudopotentials, collected wavefunctions

     init_run     :      0.49s CPU      0.49s WALL (       1 calls)
     electrons    :      1.09s CPU      1.10s WALL (       1 calls)
     forces       :      0.03s CPU      0.03s WALL (       1 calls)

     Called by init_run:
     wfcinit      :      0.16s CPU      0.16s WALL (       1 calls)
     potinit      :      0.04s CPU      0.04s WALL (       1 calls)
     hinit0       :      0.27s CPU      0.27s WALL (       1 calls)

     Called by electrons:
     c_bands      :      0.86s CPU      0.87s WALL (       5 calls)
     sum_band     :      0.20s CPU      0.20s WALL (       5 calls)
     v_of_rho     :      0.03s CPU      0.03s WALL (       5 calls)
     mix_rho      :      0.00s CPU      0.00s WALL (       5 calls)

     Called by c_bands:
     init_us_2    :      0.04s CPU      0.04s WALL (      96 calls)
     init_us_2:cp :      0.04s CPU      0.04s WALL (      96 calls)
     cegterg      :      0.75s CPU      0.76s WALL (      40 calls)

     Called by *egterg:
     cdiaghg      :      0.01s CPU      0.01s WALL (     136 calls)
     h_psi        :      0.79s CPU      0.80s WALL (     152 calls)
     g_psi        :      0.00s CPU      0.00s WALL (     104 calls)

     Called by h_psi:
     h_psi:calbec :      0.09s CPU      0.09s WALL (     152 calls)
     vloc_psi     :      0.60s CPU      0.61s WALL (     152 calls)
     add_vuspsi   :      0.09s CPU      0.09s WALL (     152 calls)

     General routines
     calbec       :      0.10s CPU      0.10s WALL (     184 calls)
     fft          :      0.21s CPU      0.21s WALL (      19 calls)
     ffts         :      0.00s CPU      0.00s WALL (       5 calls)
     fftw         :      0.60s CPU      0.60s WALL (    2124 calls)


     PWSCF        :      1.66s CPU      1.67s WALL


   This run was terminated on:  11:38: 1   2Dec2024            

=------------------------------------------------------------------------------=
   JOB DONE.
=------------------------------------------------------------------------------=
