
     Program PWSCF v.7.3 starts on  2Dec2024 at 11:37:46 

     This program is part of the open-source Quantum ESPRESSO suite
     for quantum simulation of materials; please cite
         "P. Giannozzi et al., J. Phys.:Condens. Matter 21 395502 (2009);
         "P. Giannozzi et al., J. Phys.:Condens. Matter 29 465901 (2017);
         "P. Giannozzi et al., J. Chem. Phys. 152 154105 (2020);
          URL http://www.quantum-espresso.org", 
     in publications or presentations arising from this work. More details at
     http://www.quantum-espresso.org/quote

     Serial version
     5873 MiB available memory on the printing compute node when the environment starts

     Waiting for input...
     Reading input from standard input
     Message from routine read_cards :
     DEPRECATED: no units specified in ATOMIC_POSITIONS card
     Message from routine read_cards :
     ATOMIC_POSITIONS: units set to alat

     Current dimensions of program PWSCF are:
     Max number of different atomic species (ntypx) = 10
     Max number of k-points (npk) =  40000
     Max angular momentum in pseudopotentials (lmaxx) =  4
     Message from routine iosys:
     BEWARE:  force calculation with tetrahedra (not recommanded)
     [opt_tetra]  Optimized tetrahedron method is used.


     G-vector sticks info
     --------------------
     sticks:   dense  smooth     PW     G-vecs:    dense   smooth      PW
     Sum         583     583    187                 9257     9257    1591

     Using Slab Decomposition



     bravais-lattice index     =            2
     lattice parameter (alat)  =      10.2600  a.u.
     unit-cell volume          =     270.0114 (a.u.)^3
     number of atoms/cell      =            2
     number of atomic types    =            1
     number of electrons       =         8.00
     number of Kohn-Sham states=            8
     kinetic-energy cutoff     =      40.0000  Ry
     charge density cutoff     =     160.0000  Ry
     scf convergence threshold =      1.0E-06
     mixing beta               =       0.7000
     number of iterations used =            8  plain     mixing
     Exchange-correlation= SLA  PW   NOGX NOGC
                           (   1   4   0   0   0   0   0)

     celldm(1)=  10.260000  celldm(2)=   0.000000  celldm(3)=   0.000000
     celldm(4)=   0.000000  celldm(5)=   0.000000  celldm(6)=   0.000000

     crystal axes: (cart. coord. in units of alat)
               a(1) = (  -0.500000   0.000000   0.500000 )  
               a(2) = (   0.000000   0.500000   0.500000 )  
               a(3) = (  -0.500000   0.500000   0.000000 )  

     reciprocal axes: (cart. coord. in units 2 pi/alat)
               b(1) = ( -1.000000 -1.000000  1.000000 )  
               b(2) = (  1.000000  1.000000  1.000000 )  
               b(3) = ( -1.000000  1.000000 -1.000000 )  


     PseudoPot. # 1 for Si read from file:
     ./PSEUDO/Si.LDA.upf
     MD5 check sum: 9e2d726316af3d4752eea8ab0afbb951
     Pseudo is Norm-conserving + core correction, Zval =  4.0
     Generated using ONCVPSP code by D. R. Hamann
     Using radial grid of 1510 points,  6 beta functions with: 
                l(1) =   0
                l(2) =   0
                l(3) =   1
                l(4) =   1
                l(5) =   2
                l(6) =   2

     atomic species   valence    mass     pseudopotential
     Si                4.00    28.76000     Si( 1.00)

      4 Sym. Ops. (no inversion) found



   Cartesian axes

     site n.     atom                  positions (alat units)
         1        Si     tau(   1) = (  -0.0800000   0.0000000   0.0000000  )
         2        Si     tau(   2) = (   0.2500000   0.2500000   0.2500000  )

     number of k points=    18 (tetrahedron method)
                       cart. coord. in units 2pi/alat
        k(    1) = (   0.0000000   0.0000000   0.0000000), wk =   0.0312500
        k(    2) = (  -0.2500000   0.2500000  -0.2500000), wk =   0.1250000
        k(    3) = (   0.5000000  -0.5000000   0.5000000), wk =   0.0625000
        k(    4) = (   0.0000000   0.5000000   0.0000000), wk =   0.1250000
        k(    5) = (   0.7500000  -0.2500000   0.7500000), wk =   0.2500000
        k(    6) = (   0.5000000   0.0000000   0.5000000), wk =   0.2500000
        k(    7) = (   0.0000000  -1.0000000   0.0000000), wk =   0.0625000
        k(    8) = (  -0.5000000  -1.0000000   0.0000000), wk =   0.0625000
        k(    9) = (  -0.2500000   0.2500000   0.2500000), wk =   0.1250000
        k(   10) = (   0.5000000  -0.5000000  -0.5000000), wk =   0.0625000
        k(   11) = (   0.5000000   0.0000000   0.0000000), wk =   0.0625000
        k(   12) = (  -0.2500000   0.7500000  -0.7500000), wk =   0.1250000
        k(   13) = (   0.2500000  -0.7500000  -0.7500000), wk =   0.1250000
        k(   14) = (   0.7500000   0.2500000   0.7500000), wk =   0.2500000
        k(   15) = (   0.0000000   0.5000000  -0.5000000), wk =   0.0625000
        k(   16) = (   0.0000000  -0.5000000  -0.5000000), wk =   0.0625000
        k(   17) = (  -1.0000000   0.0000000   0.0000000), wk =   0.0312500
        k(   18) = (  -1.0000000  -0.5000000   0.0000000), wk =   0.1250000

     Dense  grid:     9257 G-vectors     FFT dimensions: (  30,  30,  30)

     Estimated max dynamical RAM per process >      10.61 MB

     Initial potential from superposition of free atoms

     starting charge       7.9989, renormalised to       8.0000
     Starting wfcs are    8 randomized atomic wfcs

     total cpu time spent up to now is        0.6 secs

     Self-consistent Calculation

     iteration #  1     ecut=    40.00 Ry     beta= 0.70
     Davidson diagonalization with overlap
     ethr =  1.00E-02,  avg # of iterations =  4.7

     Threshold (ethr) on eigenvalues was too large:
     Diagonalizing with lowered threshold

     Davidson diagonalization with overlap
     ethr =  7.75E-04,  avg # of iterations =  1.9

     total cpu time spent up to now is        1.5 secs

     total energy              =     -16.94792692 Ry
     estimated scf accuracy    <       0.06648902 Ry

     iteration #  2     ecut=    40.00 Ry     beta= 0.70
     Davidson diagonalization with overlap
     ethr =  8.31E-04,  avg # of iterations =  1.0

     total cpu time spent up to now is        1.9 secs

     total energy              =     -16.95228371 Ry
     estimated scf accuracy    <       0.00178286 Ry

     iteration #  3     ecut=    40.00 Ry     beta= 0.70
     Davidson diagonalization with overlap
     ethr =  2.23E-05,  avg # of iterations =  4.3

     total cpu time spent up to now is        2.2 secs

     total energy              =     -16.95247133 Ry
     estimated scf accuracy    <       0.00005777 Ry

     iteration #  4     ecut=    40.00 Ry     beta= 0.70
     Davidson diagonalization with overlap
     ethr =  7.22E-07,  avg # of iterations =  3.3

     total cpu time spent up to now is        2.8 secs

     total energy              =     -16.95248472 Ry
     estimated scf accuracy    <       0.00000265 Ry

     iteration #  5     ecut=    40.00 Ry     beta= 0.70
     Davidson diagonalization with overlap
     ethr =  3.32E-08,  avg # of iterations =  2.3

     total cpu time spent up to now is        3.3 secs

     End of self-consistent calculation

          k = 0.0000 0.0000 0.0000 (  1139 PWs)   bands (ev):

    -6.0808   4.1192   6.5102   7.3821   8.0312   8.0830   8.9950   9.6632

          k =-0.2500 0.2500-0.2500 (  1152 PWs)   bands (ev):

    -5.2442   1.2373   5.0213   6.2891   7.9340   8.9034  10.5554  12.4028

          k = 0.5000-0.5000 0.5000 (  1158 PWs)   bands (ev):

    -3.3278  -1.9971   4.4296   5.9002   7.4270   8.3533  10.8961  13.5439

          k = 0.0000 0.5000 0.0000 (  1174 PWs)   bands (ev):

    -5.0226   1.6810   4.3267   4.8863   6.8426   8.6310  11.2301  12.0829

          k = 0.7500-0.2500 0.7500 (  1150 PWs)   bands (ev):

    -3.1541  -1.3474   2.9884   4.1710   7.0636   9.8436  11.8697  12.9418

          k = 0.5000 0.0000 0.5000 (  1159 PWs)   bands (ev):

    -4.1312   0.3447   2.1574   5.0987   7.9076  10.2195  11.2570  11.7004

          k = 0.0000-1.0000 0.0000 (  1162 PWs)   bands (ev):

    -2.0869  -2.0865   3.4798   3.4798   6.3475   6.3477  15.6635  15.6635

          k =-0.5000-1.0000 0.0000 (  1144 PWs)   bands (ev):

    -1.9534  -1.9531   2.3979   2.3980   9.4395   9.4398  11.5210  11.5210

          k =-0.2500 0.2500 0.2500 (  1152 PWs)   bands (ev):

    -5.3658   2.6144   3.7315   6.3517   7.4922   8.2406  10.3055  12.7043

          k = 0.5000-0.5000-0.5000 (  1158 PWs)   bands (ev):

    -4.2005  -0.0891   3.4319   6.0387   7.0823   7.7687  10.0307  12.9088

          k = 0.5000 0.0000 0.0000 (  1174 PWs)   bands (ev):

    -5.0593   2.7829   3.0257   4.6817   6.5590   9.5288  11.9969  12.0310

          k =-0.2500 0.7500-0.7500 (  1150 PWs)   bands (ev):

    -3.3745  -0.7284   2.0494   4.3953   8.3361   9.2616  11.3679  11.8520

          k = 0.2500-0.7500-0.7500 (  1150 PWs)   bands (ev):

    -3.7824   0.3904   2.7742   3.0234   6.4124  11.0505  11.7713  12.2003

          k = 0.7500 0.2500 0.7500 (  1150 PWs)   bands (ev):

    -3.7075   0.2920   1.7182   4.2690   7.1788   9.8270  10.9077  12.2399

          k = 0.0000 0.5000-0.5000 (  1159 PWs)   bands (ev):

    -3.8078  -0.7451   2.5078   5.5968   9.3552   9.5935  11.1913  11.3178

          k = 0.0000-0.5000-0.5000 (  1159 PWs)   bands (ev):

    -4.3637   1.8210   2.2288   3.3768   7.3450  10.7713  11.8150  12.2539

          k =-1.0000 0.0000 0.0000 (  1162 PWs)   bands (ev):

    -3.0301  -0.5023   2.2781   3.6263   5.6440   7.5416  15.5797  16.0991

          k =-1.0000-0.5000 0.0000 (  1144 PWs)   bands (ev):

    -2.6730  -0.8771   1.6795   2.6667   8.9758  10.6430  10.7554  11.3415

     the Fermi energy is     6.5330 ev

!    total energy              =     -16.95248516 Ry
     estimated scf accuracy    <       0.00000085 Ry

     The total energy is the sum of the following terms:
     one-electron contribution =       4.77468493 Ry
     hartree contribution      =       1.13151747 Ry
     xc contribution           =      -6.21254061 Ry
     ewald contribution        =     -16.64614695 Ry

     convergence has been achieved in   5 iterations

     Forces acting on atoms (cartesian axes, Ry/au):

     atom    1 type  1   force =     0.18314039    0.00000000    0.00000000
     atom    2 type  1   force =    -0.18314039    0.00000000    0.00000000

     Total force =     0.259000     Total SCF correction =     0.000172

     Writing all to output data dir ./tmp/cubicmHF.save/ :
     XML data file, charge density, pseudopotentials, collected wavefunctions

     init_run     :      0.54s CPU      0.55s WALL (       1 calls)
     electrons    :      2.64s CPU      2.68s WALL (       1 calls)
     forces       :      0.05s CPU      0.05s WALL (       1 calls)

     Called by init_run:
     wfcinit      :      0.21s CPU      0.22s WALL (       1 calls)
     potinit      :      0.03s CPU      0.03s WALL (       1 calls)
     hinit0       :      0.29s CPU      0.29s WALL (       1 calls)

     Called by electrons:
     c_bands      :      2.26s CPU      2.30s WALL (       6 calls)
     sum_band     :      0.36s CPU      0.36s WALL (       6 calls)
     v_of_rho     :      0.01s CPU      0.01s WALL (       6 calls)
     mix_rho      :      0.01s CPU      0.01s WALL (       6 calls)

     Called by c_bands:
     init_us_2    :      0.07s CPU      0.08s WALL (     252 calls)
     init_us_2:cp :      0.07s CPU      0.08s WALL (     252 calls)
     cegterg      :      2.04s CPU      2.07s WALL (     108 calls)

     Called by *egterg:
     cdiaghg      :      0.03s CPU      0.03s WALL (     405 calls)
     h_psi        :      1.89s CPU      1.93s WALL (     441 calls)
     g_psi        :      0.01s CPU      0.01s WALL (     315 calls)

     Called by h_psi:
     h_psi:calbec :      0.21s CPU      0.21s WALL (     441 calls)
     vloc_psi     :      1.48s CPU      1.52s WALL (     441 calls)
     add_vuspsi   :      0.19s CPU      0.19s WALL (     441 calls)

     General routines
     calbec       :      0.24s CPU      0.24s WALL (     513 calls)
     fft          :      0.21s CPU      0.21s WALL (      22 calls)
     ffts         :      0.00s CPU      0.00s WALL (       6 calls)
     fftw         :      1.50s CPU      1.53s WALL (    5784 calls)


     PWSCF        :      3.26s CPU      3.33s WALL


   This run was terminated on:  11:37:50   2Dec2024            

=------------------------------------------------------------------------------=
   JOB DONE.
=------------------------------------------------------------------------------=
